
     Program PWSCF v.5.1 starts on 12Feb2023 at 22:52:39 

     This program is part of the open-source Quantum ESPRESSO suite
     for quantum simulation of materials; please cite
         "P. Giannozzi et al., J. Phys.:Condens. Matter 21 395502 (2009);
          URL http://www.quantum-espresso.org", 
     in publications or presentations arising from this work. More details at
     http://www.quantum-espresso.org/quote

     Parallel version (MPI), running on     1 processors
     Waiting for input...
     Reading input from standard input
Warning: card    SI   -0.50    0.00    0.50 ignored
Warning: card    SI   -0.25    0.25    0.75 ignored

     Current dimensions of program PWSCF are:
     Max number of different atomic species (ntypx) = 10
     Max number of k-points (npk) =  40000
     Max angular momentum in pseudopotentials (lmaxx) =  3

     Atomic positions and unit cell read from directory:
     ./out/Si.save/

               file Si.pbe-mt_fhi.UPF: wavefunction(s)  4f renormalized

     Subspace diagonalization in iterative solution of the eigenvalue problem:
     a serial algorithm will be used


     G-vector sticks info
     --------------------
     sticks:   dense  smooth     PW     G-vecs:    dense   smooth      PW
     Sum         733     733    223                12939    12939    2229



     bravais-lattice index     =            2
     lattice parameter (alat)  =      10.2623  a.u.
     unit-cell volume          =     270.1967 (a.u.)^3
     number of atoms/cell      =            2
     number of atomic types    =            1
     number of electrons       =         8.00
     number of Kohn-Sham states=           10
     kinetic-energy cutoff     =      50.0000  Ry
     charge density cutoff     =     200.0000  Ry
     Exchange-correlation      = PBE ( 1  4  3  4 0)

     celldm(1)=  10.262347  celldm(2)=   0.000000  celldm(3)=   0.000000
     celldm(4)=   0.000000  celldm(5)=   0.000000  celldm(6)=   0.000000

     crystal axes: (cart. coord. in units of alat)
               a(1) = (  -0.500000   0.000000   0.500000 )  
               a(2) = (   0.000000   0.500000   0.500000 )  
               a(3) = (  -0.500000   0.500000   0.000000 )  

     reciprocal axes: (cart. coord. in units 2 pi/alat)
               b(1) = ( -1.000000 -1.000000  1.000000 )  
               b(2) = (  1.000000  1.000000  1.000000 )  
               b(3) = ( -1.000000  1.000000 -1.000000 )  


     PseudoPot. # 1 for Si read from file:
     /home/acedemo/psudo/Si.pbe-mt_fhi.UPF
     MD5 check sum: 259057c2adf9952f9ced37ae3d9e311d
     Pseudo is Norm-conserving, Zval =  4.0
     Generated using FHI98PP, converted with fhi2upf.x v.5.0.2
     Using radial grid of  495 points,  3 beta functions with: 
                l(1) =   0
                l(2) =   1
                l(3) =   3

     atomic species   valence    mass     pseudopotential
        Si             4.00    28.08550     Si( 1.00)

     48 Sym. Ops., with inversion, found (24 have fractional translation)



   Cartesian axes

     site n.     atom                  positions (alat units)
         1           Si  tau(   1) = (   0.0000000   0.0000000   0.0000000  )
         2           Si  tau(   2) = (   0.2500000   0.2500000   0.2500000  )

     number of k points=    72 (tetrahedron method)
                       cart. coord. in units 2pi/alat
        k(    1) = (   0.0000000   0.0000000   0.0000000), wk =   0.0011574
        k(    2) = (  -0.0833333   0.0833333  -0.0833333), wk =   0.0092593
        k(    3) = (  -0.1666667   0.1666667  -0.1666667), wk =   0.0092593
        k(    4) = (  -0.2500000   0.2500000  -0.2500000), wk =   0.0092593
        k(    5) = (  -0.3333333   0.3333333  -0.3333333), wk =   0.0092593
        k(    6) = (  -0.4166667   0.4166667  -0.4166667), wk =   0.0092593
        k(    7) = (   0.5000000  -0.5000000   0.5000000), wk =   0.0046296
        k(    8) = (   0.0000000   0.1666667   0.0000000), wk =   0.0069444
        k(    9) = (  -0.0833333   0.2500000  -0.0833333), wk =   0.0277778
        k(   10) = (  -0.1666667   0.3333333  -0.1666667), wk =   0.0277778
        k(   11) = (  -0.2500000   0.4166667  -0.2500000), wk =   0.0277778
        k(   12) = (  -0.3333333   0.5000000  -0.3333333), wk =   0.0277778
        k(   13) = (   0.5833333  -0.4166667   0.5833333), wk =   0.0277778
        k(   14) = (   0.5000000  -0.3333333   0.5000000), wk =   0.0277778
        k(   15) = (   0.4166667  -0.2500000   0.4166667), wk =   0.0277778
        k(   16) = (   0.3333333  -0.1666667   0.3333333), wk =   0.0277778
        k(   17) = (   0.2500000  -0.0833333   0.2500000), wk =   0.0277778
        k(   18) = (   0.1666667  -0.0000000   0.1666667), wk =   0.0138889
        k(   19) = (   0.0000000   0.3333333   0.0000000), wk =   0.0069444
        k(   20) = (  -0.0833333   0.4166667  -0.0833333), wk =   0.0277778
        k(   21) = (  -0.1666667   0.5000000  -0.1666667), wk =   0.0277778
        k(   22) = (  -0.2500000   0.5833333  -0.2500000), wk =   0.0277778
        k(   23) = (   0.6666667  -0.3333333   0.6666667), wk =   0.0277778
        k(   24) = (   0.5833333  -0.2500000   0.5833333), wk =   0.0277778
        k(   25) = (   0.5000000  -0.1666667   0.5000000), wk =   0.0277778
        k(   26) = (   0.4166667  -0.0833333   0.4166667), wk =   0.0277778
        k(   27) = (   0.3333333   0.0000000   0.3333333), wk =   0.0138889
        k(   28) = (   0.0000000   0.5000000   0.0000000), wk =   0.0069444
        k(   29) = (  -0.0833333   0.5833333  -0.0833333), wk =   0.0277778
        k(   30) = (  -0.1666667   0.6666667  -0.1666667), wk =   0.0277778
        k(   31) = (   0.7500000  -0.2500000   0.7500000), wk =   0.0277778
        k(   32) = (   0.6666667  -0.1666667   0.6666667), wk =   0.0277778
        k(   33) = (   0.5833333  -0.0833333   0.5833333), wk =   0.0277778
        k(   34) = (   0.5000000   0.0000000   0.5000000), wk =   0.0138889
        k(   35) = (   0.0000000   0.6666667   0.0000000), wk =   0.0069444
        k(   36) = (  -0.0833333   0.7500000  -0.0833333), wk =   0.0277778
        k(   37) = (   0.8333333  -0.1666667   0.8333333), wk =   0.0277778
        k(   38) = (   0.7500000  -0.0833333   0.7500000), wk =   0.0277778
        k(   39) = (   0.6666667   0.0000000   0.6666667), wk =   0.0138889
        k(   40) = (   0.0000000   0.8333333   0.0000000), wk =   0.0069444
        k(   41) = (   0.9166667  -0.0833333   0.9166667), wk =   0.0277778
        k(   42) = (   0.8333333   0.0000000   0.8333333), wk =   0.0138889
        k(   43) = (   0.0000000  -1.0000000   0.0000000), wk =   0.0034722
        k(   44) = (  -0.1666667   0.3333333   0.0000000), wk =   0.0277778
        k(   45) = (  -0.2500000   0.4166667  -0.0833333), wk =   0.0555556
        k(   46) = (  -0.3333333   0.5000000  -0.1666667), wk =   0.0555556
        k(   47) = (   0.5833333  -0.4166667   0.7500000), wk =   0.0555556
        k(   48) = (   0.5000000  -0.3333333   0.6666667), wk =   0.0277778
        k(   49) = (  -0.1666667   0.5000000   0.0000000), wk =   0.0277778
        k(   50) = (  -0.2500000   0.5833333  -0.0833333), wk =   0.0555556
        k(   51) = (   0.6666667  -0.3333333   0.8333333), wk =   0.0555556
        k(   52) = (   0.5833333  -0.2500000   0.7500000), wk =   0.0555556
        k(   53) = (   0.5000000  -0.1666667   0.6666667), wk =   0.0555556
        k(   54) = (   0.4166667  -0.0833333   0.5833333), wk =   0.0555556
        k(   55) = (   0.3333333   0.0000000   0.5000000), wk =   0.0277778
        k(   56) = (  -0.1666667   0.6666667  -0.0000000), wk =   0.0277778
        k(   57) = (   0.7500000  -0.2500000   0.9166667), wk =   0.0555556
        k(   58) = (   0.6666667  -0.1666667   0.8333333), wk =   0.0555556
        k(   59) = (   0.5833333  -0.0833333   0.7500000), wk =   0.0555556
        k(   60) = (   0.5000000   0.0000000   0.6666667), wk =   0.0277778
        k(   61) = (   0.8333333  -0.1666667   1.0000000), wk =   0.0277778
        k(   62) = (   0.7500000  -0.0833333   0.9166667), wk =   0.0555556
        k(   63) = (   0.6666667   0.0000000   0.8333333), wk =   0.0277778
        k(   64) = (  -0.1666667  -1.0000000   0.0000000), wk =   0.0138889
        k(   65) = (   0.6666667  -0.3333333   1.0000000), wk =   0.0277778
        k(   66) = (   0.5833333  -0.2500000   0.9166667), wk =   0.0555556
        k(   67) = (   0.5000000  -0.1666667   0.8333333), wk =   0.0277778
        k(   68) = (   0.6666667  -0.1666667   1.0000000), wk =   0.0277778
        k(   69) = (   0.5833333  -0.0833333   0.9166667), wk =   0.0555556
        k(   70) = (   0.5000000   0.0000000   0.8333333), wk =   0.0277778
        k(   71) = (  -0.3333333  -1.0000000   0.0000000), wk =   0.0138889
        k(   72) = (  -0.5000000  -1.0000000   0.0000000), wk =   0.0069444

     Dense  grid:    12939 G-vectors     FFT dimensions: (  36,  36,  36)

     Largest allocated arrays     est. size (Mb)     dimensions
        Kohn-Sham Wavefunctions         0.25 Mb     (    1639,   10)
        NL pseudopotentials             0.55 Mb     (    1639,   22)
        Each V/rho on FFT grid          0.71 Mb     (   46656)
        Each G-vector array             0.10 Mb     (   12939)
        G-vector shells                 0.00 Mb     (     180)
     Largest temporary arrays     est. size (Mb)     dimensions
        Auxiliary wavefunctions         1.00 Mb     (    1639,   40)
        Each subspace H/S matrix        0.02 Mb     (      40,   40)
        Each <psi_i|beta_j> matrix      0.00 Mb     (      22,   10)

     The potential is recalculated from file :
     ./out/Si.save/charge-density.dat

     Starting wfc are   32 randomized atomic wfcs

     Band Structure Calculation
     Davidson diagonalization with overlap

     ethr =  2.00E-11,  avg # of iterations = 18.3

     total cpu time spent up to now is       44.4 secs

     End of band structure calculation

          k = 0.0000 0.0000 0.0000 (  1639 PWs)   bands (ev):

    -5.7361   6.2370   6.2370   6.2370   8.8047   8.8047   8.8047   9.5069
    13.9776  13.9776

          k =-0.0833 0.0833-0.0833 (  1612 PWs)   bands (ev):

    -5.6449   5.3753   6.0933   6.0933   8.8345   9.0158   9.0158  10.1843
    13.7079  13.7079

          k =-0.1667 0.1667-0.1667 (  1591 PWs)   bands (ev):

    -5.3743   3.8524   5.7866   5.7866   8.5668   9.4514   9.4514  11.6139
    13.3408  13.3408

          k =-0.2500 0.2500-0.2500 (  1618 PWs)   bands (ev):

    -4.9351   2.3064   5.4770   5.4770   8.2420   9.7475   9.7475  13.0826
    13.4484  13.4484

          k =-0.3333 0.3333-0.3333 (  1616 PWs)   bands (ev):

    -4.3571   0.8988   5.2360   5.2360   7.9756   9.7506   9.7506  14.0874
    14.2342  14.2342

          k =-0.4167 0.4167-0.4167 (  1616 PWs)   bands (ev):

    -3.7357  -0.2317   5.0872   5.0872   7.8072   9.6394   9.6394  14.0505
    15.5175  15.5175

          k = 0.5000-0.5000 0.5000 (  1622 PWs)   bands (ev):

    -3.4012  -0.7376   5.0373   5.0373   7.7500   9.5854   9.5854  13.9689
    16.8057  16.8057

          k = 0.0000 0.1667 0.0000 (  1615 PWs)   bands (ev):

    -5.6144   5.5379   5.8074   5.8074   8.5296   9.3827   9.3827  10.1517
    13.2083  14.1121

          k =-0.0833 0.2500-0.0833 (  1599 PWs)   bands (ev):

    -5.4031   4.3049   5.4434   5.6326   8.5500   9.4461   9.9202  11.0834
    12.8520  14.0537

          k =-0.1667 0.3333-0.1667 (  1610 PWs)   bands (ev):

    -5.0185   2.8035   5.1299   5.3088   8.6662   9.4414  10.3062  11.6260
    13.5766  14.1109

          k =-0.2500 0.4167-0.2500 (  1606 PWs)   bands (ev):

    -4.4817   1.3670   4.9196   4.9554   8.5142   9.5340  10.3314  12.2030
    14.7655  14.8546

          k =-0.3333 0.5000-0.3333 (  1616 PWs)   bands (ev):

    -3.8552   0.1361   4.6589   4.8295   8.3460   9.5052  10.1378  13.2515
    14.9640  15.9510

          k = 0.5833-0.4167 0.5833 (  1615 PWs)   bands (ev):

    -3.3637  -0.6344   4.4539   4.8602   8.2644   9.5085   9.9387  14.1582
    15.2698  16.7594

          k = 0.5000-0.3333 0.5000 (  1616 PWs)   bands (ev):

    -3.4847  -0.4565   4.3586   5.0034   8.2904   9.6256   9.8279  14.2662
    15.2007  15.7018

          k = 0.4167-0.2500 0.4167 (  1611 PWs)   bands (ev):

    -4.0674   0.5166   4.3861   5.2431   8.4228   9.7952   9.8345  13.7064
    13.8223  15.3398

          k = 0.3333-0.1667 0.3333 (  1605 PWs)   bands (ev):

    -4.6763   1.8315   4.5463   5.5535   8.6488   9.7127   9.9850  12.7257
    12.9142  15.2359

          k = 0.2500-0.0833 0.2500 (  1600 PWs)   bands (ev):

    -5.1659   3.2901   4.8511   5.8831   8.9332   9.4117   9.7676  11.9285
    12.6973  14.1500

          k = 0.1667-0.0000 0.1667 (  1592 PWs)   bands (ev):

    -5.4937   4.6429   5.3740   6.1187   9.0542   9.1505   9.2058  10.9937
    13.0797  13.8193

          k = 0.0000 0.3333 0.0000 (  1607 PWs)   bands (ev):

    -5.2512   4.1917   5.0444   5.0444   7.9443  10.5028  10.5831  10.5831
    12.7960  14.5150

          k =-0.0833 0.4167-0.0833 (  1616 PWs)   bands (ev):

    -4.9235   3.1060   4.6960   4.7096   7.9635  10.1160  10.9196  11.1454
    13.7558  14.7415

          k =-0.1667 0.5000-0.1667 (  1611 PWs)   bands (ev):

    -4.4347   1.7961   4.2429   4.4906   8.2025  10.2854  10.7596  11.3144
    15.2850  15.3208

          k =-0.2500 0.5833-0.2500 (  1610 PWs)   bands (ev):

    -3.8259   0.5613   3.8034   4.4063   8.2461  10.4780  11.1364  11.2851
    16.1367  16.4350

          k = 0.6667-0.3333 0.6667 (  1607 PWs)   bands (ev):

    -3.2416  -0.3735   3.4587   4.4600   8.2758  10.3383  10.8649  12.6506
    15.6575  16.7221

          k = 0.5833-0.2500 0.5833 (  1602 PWs)   bands (ev):

    -3.1270  -0.5334   3.2448   4.6440   8.4180  10.2932  10.6389  14.2043
    14.7759  15.0300

          k = 0.5000-0.1667 0.5000 (  1610 PWs)   bands (ev):

    -3.6271   0.2260   3.1885   4.9391   8.6795  10.3509  10.4725  13.5029
    13.5773  15.6343

          k = 0.4167-0.0833 0.4167 (  1613 PWs)   bands (ev):

    -4.2524   1.3732   3.3337   5.3074   9.0071  10.2429  10.4096  12.3410
    12.6072  16.5118

          k = 0.3333 0.0000 0.3333 (  1604 PWs)   bands (ev):

    -4.7851   2.5149   3.8250   5.6716   9.2587   9.7993  10.0805  11.8732
    12.3600  15.5708

          k = 0.0000 0.5000 0.0000 (  1612 PWs)   bands (ev):

    -4.6524   2.7137   4.3468   4.3468   7.3699   9.3679  11.9915  11.9915
    14.1879  15.1855

          k =-0.0833 0.5833-0.0833 (  1617 PWs)   bands (ev):

    -4.2152   1.8042   3.8813   4.1000   7.4535   9.0165  12.2684  12.4736
    15.4749  15.7495

          k =-0.1667 0.6667-0.1667 (  1620 PWs)   bands (ev):

    -3.6390   0.7754   3.2490   3.9926   7.6714   9.4878  12.1254  12.4344
    16.8383  17.1279

          k = 0.7500-0.2500 0.7500 (  1617 PWs)   bands (ev):

    -3.0141  -0.1510   2.7022   4.0311   7.7589  10.6857  11.9527  12.1592
    16.4245  16.7810

          k = 0.6667-0.1667 0.6667 (  1607 PWs)   bands (ev):

    -2.6899  -0.5658   2.3391   4.2112   7.9370  11.6839  11.8629  12.3841
    14.9698  15.0183

          k = 0.5833-0.0833 0.5833 (  1611 PWs)   bands (ev):

    -3.0663  -0.0715   2.2198   4.5162   8.2593  11.5620  11.6617  13.3885
    13.5442  14.1478

          k = 0.5000 0.0000 0.5000 (  1604 PWs)   bands (ev):

    -3.6892   0.7516   2.4843   4.9087   8.6816  11.0286  11.3625  12.3461
    12.6996  15.8565

          k = 0.0000 0.6667 0.0000 (  1624 PWs)   bands (ev):

    -3.8290   1.2206   3.8185   3.8185   6.9674   8.2320  13.4935  13.4935
    15.9335  16.1217

          k =-0.0833 0.7500-0.0833 (  1618 PWs)   bands (ev):

    -3.2935   0.4346   3.3327   3.6755   7.1296   8.1018  13.8047  13.8647
    17.0301  17.2332

          k = 0.8333-0.1667 0.8333 (  1619 PWs)   bands (ev):

    -2.6636  -0.3342   2.6049   3.6816   7.3035   8.9554  13.6857  13.6869
    16.8283  16.9423

          k = 0.7500-0.0833 0.7500 (  1620 PWs)   bands (ev):

    -2.1942  -0.8256   2.0260   3.8355   7.4797  10.4006  13.3348  13.5171
    15.1227  15.1807

          k = 0.6667 0.0000 0.6667 (  1612 PWs)   bands (ev):

    -2.4674  -0.5392   1.8241   4.1243   7.8054  12.0420  12.7118  13.2851
    13.6224  13.9187

          k = 0.0000 0.8333 0.0000 (  1628 PWs)   bands (ev):

    -2.7982  -0.2307   3.4928   3.4928   6.8127   7.4172  15.0496  15.0496
    17.3207  17.6408

          k = 0.9167-0.0833 0.9167 (  1622 PWs)   bands (ev):

    -2.1839  -0.9190   3.0615   3.4591   7.0139   7.5823  15.2963  15.3805
    17.0775  17.1475

          k = 0.8333 0.0000 0.8333 (  1614 PWs)   bands (ev):

    -1.7276  -1.3234   2.3911   3.5763   7.1734   8.7814  14.7496  15.2454
    15.3410  15.6994

          k = 0.0000-1.0000 0.0000 (  1604 PWs)   bands (ev):

    -1.5863  -1.5863   3.3831   3.3831   6.9512   6.9512  16.3109  16.3109
    17.2271  17.2271

          k =-0.1667 0.3333 0.0000 (  1603 PWs)   bands (ev):

    -5.1339   3.5048   4.6036   5.5300   8.5770   9.7617  10.3936  11.1367
    13.0645  14.4104

          k =-0.2500 0.4167-0.0833 (  1607 PWs)   bands (ev):

    -4.6968   2.2641   4.0705   5.2549   8.8542   9.7346  10.8001  11.1320
    13.5464  15.5032

          k =-0.3333 0.5000-0.1667 (  1604 PWs)   bands (ev):

    -4.1207   0.9623   3.8004   4.9274   8.8874   9.6250  10.8573  11.7791
    14.4257  16.0912

          k = 0.5833-0.4167 0.7500 (  1612 PWs)   bands (ev):

    -3.4981  -0.1282   3.6727   4.6808   8.8265   9.4430  10.7762  12.9920
    15.3081  15.8602

          k = 0.5000-0.3333 0.6667 (  1602 PWs)   bands (ev):

    -3.1592  -0.6270   3.6371   4.5891   8.8028   9.3607  10.7308  14.3033
    14.4936  16.1459

          k =-0.1667 0.5000 0.0000 (  1617 PWs)   bands (ev):

    -4.5418   2.3114   3.9075   4.6097   8.0293   9.7592  11.0481  11.8712
    14.3626  15.6481

          k =-0.2500 0.5833-0.0833 (  1611 PWs)   bands (ev):

    -4.0084   1.2612   3.3697   4.3212   8.3613   9.9818  10.7880  12.2550
    15.0749  17.1949

          k = 0.6667-0.3333 0.8333 (  1617 PWs)   bands (ev):

    -3.3820   0.2064   3.0127   4.1104   8.4814  10.4432  11.0385  12.2346
    16.0773  16.2889

          k = 0.5833-0.2500 0.7500 (  1607 PWs)   bands (ev):

    -2.8844  -0.5006   2.7668   4.0922   8.6080  10.1687  12.1264  12.5065
    14.5043  16.7909

          k = 0.5000-0.1667 0.6667 (  1605 PWs)   bands (ev):

    -3.0203  -0.3132   2.6485   4.2650   8.8555   9.9815  12.0408  12.8956
    14.2097  15.5384

          k = 0.4167-0.0833 0.5833 (  1610 PWs)   bands (ev):

    -3.6114   0.5644   2.7229   4.5821   9.2112   9.8426  11.5182  12.0017
    14.2344  15.8890

          k = 0.3333 0.0000 0.5000 (  1606 PWs)   bands (ev):

    -4.2149   1.5439   3.1385   4.9641   9.4502   9.5847  10.9054  11.5709
    13.5202  17.0387

          k =-0.1667 0.6667-0.0000 (  1626 PWs)   bands (ev):

    -3.7302   1.0453   3.3972   3.8250   7.6319   8.7175  12.2871  13.4421
    15.8215  17.2387

          k = 0.7500-0.2500 0.9167 (  1621 PWs)   bands (ev):

    -3.1236   0.2096   2.8093   3.6079   7.9658   9.2467  11.9861  13.8065
    16.4566  16.7713

          k = 0.6667-0.1667 0.8333 (  1616 PWs)   bands (ev):

    -2.5335  -0.5055   2.2881   3.6158   8.1191  10.5407  11.6906  13.7342
    14.6765  17.1239

          k = 0.5833-0.0833 0.7500 (  1614 PWs)   bands (ev):

    -2.4624  -0.5765   1.9992   3.8146   8.3748  11.2930  12.2813  12.9552
    13.6354  15.5845

          k = 0.5000 0.0000 0.6667 (  1621 PWs)   bands (ev):

    -3.0008   0.0143   2.0861   4.1599   8.7647  10.8806  11.7289  13.0731
    14.1709  14.4510

          k = 0.8333-0.1667 1.0000 (  1617 PWs)   bands (ev):

    -2.7207  -0.2672   3.1129   3.3095   7.4616   7.9739  13.6613  15.0440
    16.8177  17.3160

          k = 0.7500-0.0833 0.9167 (  1620 PWs)   bands (ev):

    -2.0909  -0.9107   2.4846   3.2656   7.7534   8.8789  13.3417  14.8173
    15.5025  17.1910

          k = 0.6667 0.0000 0.8333 (  1620 PWs)   bands (ev):

    -1.9360  -1.0242   1.9865   3.4630   7.9901  10.4077  12.8847  13.2708
    15.0323  15.9107

          k =-0.1667-1.0000 0.0000 (  1622 PWs)   bands (ev):

    -1.5482  -1.5482   3.0774   3.0774   7.5638   7.5638  15.1276  15.1276
    16.8275  16.8275

          k = 0.6667-0.3333 1.0000 (  1610 PWs)   bands (ev):

    -3.4433   0.5877   2.6674   3.9423   9.0908   9.9549  10.4568  13.2959
    15.2089  16.1296

          k = 0.5833-0.2500 0.9167 (  1611 PWs)   bands (ev):

    -2.8183  -0.1825   2.3200   3.6052   9.4652  10.0010  10.9821  13.7212
    14.3198  16.1814

          k = 0.5000-0.1667 0.8333 (  1610 PWs)   bands (ev):

    -2.4574  -0.6120   2.2269   3.4757   9.5989   9.7842  12.3338  12.7395
    13.7794  17.3268

          k = 0.6667-0.1667 1.0000 (  1618 PWs)   bands (ev):

    -2.5065  -0.4116   2.4685   3.0875   8.9202   9.3240  11.6081  14.5319
    15.0789  16.9395

          k = 0.5833-0.0833 0.9167 (  1615 PWs)   bands (ev):

    -1.9827  -0.9185   2.1530   2.9332   9.2614  10.5272  11.3313  12.7193
    15.4495  17.3382

          k = 0.5000 0.0000 0.8333 (  1612 PWs)   bands (ev):

    -2.2145  -0.6885   2.0281   3.1584   9.5631  10.7130  11.2242  12.4679
    15.0315  16.4266

          k =-0.3333-1.0000 0.0000 (  1618 PWs)   bands (ev):

    -1.4665  -1.4665   2.5921   2.5921   8.9869   8.9869  12.9863  12.9863
    16.7967  16.7967

          k =-0.5000-1.0000 0.0000 (  1628 PWs)   bands (ev):

    -1.4224  -1.4224   2.3845   2.3845  10.5143  10.5143  11.2200  11.2200
    16.8009  16.8009

     the Fermi energy is     6.6829 ev

     Writing output data file Si.save

     init_run     :      0.22s CPU      0.23s WALL (       1 calls)
     electrons    :     41.91s CPU     43.47s WALL (       1 calls)

     Called by init_run:
     wfcinit      :      0.00s CPU      0.00s WALL (       1 calls)
     potinit      :      0.06s CPU      0.06s WALL (       1 calls)

     Called by electrons:
     c_bands      :     41.86s CPU     43.42s WALL (       1 calls)
     v_of_rho     :      0.05s CPU      0.05s WALL (       1 calls)

     Called by c_bands:
     init_us_2    :      0.13s CPU      0.13s WALL (      72 calls)
     cegterg      :     32.72s CPU     33.82s WALL (      87 calls)

     Called by *egterg:
     h_psi        :     35.19s CPU     36.53s WALL (    1478 calls)
     g_psi        :      0.09s CPU      0.09s WALL (    1319 calls)
     cdiaghg      :      0.73s CPU      0.75s WALL (    1391 calls)

     Called by h_psi:
     add_vuspsi   :      0.99s CPU      1.04s WALL (    1478 calls)

     General routines
     calbec       :      1.10s CPU      1.16s WALL (    1478 calls)
     fft          :      0.02s CPU      0.02s WALL (      10 calls)
     fftw         :     31.26s CPU     32.45s WALL (   21496 calls)
     davcio       :      0.00s CPU      0.01s WALL (      72 calls)

     Parallel routines
     fft_scatter  :      0.80s CPU      0.83s WALL (   21506 calls)

     PWSCF        :    44.77s CPU        46.40s WALL


   This run was terminated on:  22:53:26  12Feb2023            

=------------------------------------------------------------------------------=
   JOB DONE.
=------------------------------------------------------------------------------=
