
     Program PWSCF v.5.1 starts on 27Feb2023 at 12: 5:56 

     This program is part of the open-source Quantum ESPRESSO suite
     for quantum simulation of materials; please cite
         "P. Giannozzi et al., J. Phys.:Condens. Matter 21 395502 (2009);
          URL http://www.quantum-espresso.org", 
     in publications or presentations arising from this work. More details at
     http://www.quantum-espresso.org/quote

     Parallel version (MPI), running on     1 processors
     Waiting for input...
     Reading input from standard input
Warning: card    SI   -0.50    0.00    0.50 ignored
Warning: card    SI   -0.25    0.25    0.75 ignored

     Current dimensions of program PWSCF are:
     Max number of different atomic species (ntypx) = 10
     Max number of k-points (npk) =  40000
     Max angular momentum in pseudopotentials (lmaxx) =  3

     Atomic positions and unit cell read from directory:
     ./out/Si.save/

               file Si.pbe-mt_fhi.UPF: wavefunction(s)  4f renormalized
               file B.pbe-mt_fhi.UPF: wavefunction(s)  4f renormalized
               file P.pbe-mt_fhi.UPF: wavefunction(s)  4f renormalized

     Subspace diagonalization in iterative solution of the eigenvalue problem:
     a serial algorithm will be used


     G-vector sticks info
     --------------------
     sticks:   dense  smooth     PW     G-vecs:    dense   smooth      PW
     Sum         733     733    211                12939    12939    2109



     bravais-lattice index     =            2
     lattice parameter (alat)  =      10.2623  a.u.
     unit-cell volume          =     270.1967 (a.u.)^3
     number of atoms/cell      =            2
     number of atomic types    =            3
     number of electrons       =         8.00
     number of Kohn-Sham states=           12
     kinetic-energy cutoff     =      50.0000  Ry
     charge density cutoff     =     200.0000  Ry
     Exchange-correlation      = PBE ( 1  4  3  4 0)

     celldm(1)=  10.262347  celldm(2)=   0.000000  celldm(3)=   0.000000
     celldm(4)=   0.000000  celldm(5)=   0.000000  celldm(6)=   0.000000

     crystal axes: (cart. coord. in units of alat)
               a(1) = (  -0.500000   0.000000   0.500000 )  
               a(2) = (   0.000000   0.500000   0.500000 )  
               a(3) = (  -0.500000   0.500000   0.000000 )  

     reciprocal axes: (cart. coord. in units 2 pi/alat)
               b(1) = ( -1.000000 -1.000000  1.000000 )  
               b(2) = (  1.000000  1.000000  1.000000 )  
               b(3) = ( -1.000000  1.000000 -1.000000 )  


     PseudoPot. # 1 for Si read from file:
     /home/acedemo/psudo/Si.pbe-mt_fhi.UPF
     MD5 check sum: 259057c2adf9952f9ced37ae3d9e311d
     Pseudo is Norm-conserving, Zval =  4.0
     Generated using FHI98PP, converted with fhi2upf.x v.5.0.2
     Using radial grid of  495 points,  3 beta functions with: 
                l(1) =   0
                l(2) =   1
                l(3) =   3

     PseudoPot. # 2 for  B read from file:
     /home/acedemo/psudo/B.pbe-mt_fhi.UPF
     MD5 check sum: 3ba04917d1d3a8de85490f79a9c37fe5
     Pseudo is Norm-conserving + core correction, Zval =  3.0
     Generated using FHI98PP, converted with fhi2upf.x v.5.0.2
     Using radial grid of  453 points,  3 beta functions with: 
                l(1) =   0
                l(2) =   1
                l(3) =   3

     PseudoPot. # 3 for  P read from file:
     /home/acedemo/psudo/P.pbe-mt_fhi.UPF
     MD5 check sum: 7191c457fb61afa58d0f00d0e4a443c1
     Pseudo is Norm-conserving, Zval =  5.0
     Generated using FHI98PP, converted with fhi2upf.x v.5.0.2
     Using radial grid of  499 points,  3 beta functions with: 
                l(1) =   0
                l(2) =   1
                l(3) =   3

     atomic species   valence    mass     pseudopotential
        Si             4.00    28.08550     Si( 1.00)
        B              3.00    10.81100      B( 1.00)
        P              5.00    30.97376      P( 1.00)

     24 Sym. Ops. (no inversion) found



   Cartesian axes

     site n.     atom                  positions (alat units)
         1           B   tau(   1) = (   0.0000000   0.0000000   0.0000000  )
         2           P   tau(   2) = (   0.2500000   0.2500000   0.2500000  )

     number of k points=    51  Marzari-Vanderbilt smearing, width (Ry)=  0.0500
                       cart. coord. in units 2pi/alat
        k(    1) = (   0.5000000   0.5000000   0.5000000), wk =   0.0000000
        k(    2) = (   0.4500000   0.4500000   0.4500000), wk =   0.0014779
        k(    3) = (   0.4000000   0.4000000   0.4000000), wk =   0.0029558
        k(    4) = (   0.3500000   0.3500000   0.3500000), wk =   0.0044337
        k(    5) = (   0.3000000   0.3000000   0.3000000), wk =   0.0059116
        k(    6) = (   0.2500000   0.2500000   0.2500000), wk =   0.0073895
        k(    7) = (   0.2000000   0.2000000   0.2000000), wk =   0.0088674
        k(    8) = (   0.1500000   0.1500000   0.1500000), wk =   0.0103453
        k(    9) = (   0.1000000   0.1000000   0.1000000), wk =   0.0118232
        k(   10) = (   0.0500000   0.0500000   0.0500000), wk =   0.0133011
        k(   11) = (   0.0000000   0.0000000   0.0000000), wk =   0.0147790
        k(   12) = (   0.0000000   0.1000000   0.0000000), wk =   0.0168691
        k(   13) = (   0.0000000   0.2000000   0.0000000), wk =   0.0189591
        k(   14) = (   0.0000000   0.3000000   0.0000000), wk =   0.0210492
        k(   15) = (   0.0000000   0.4000000   0.0000000), wk =   0.0231392
        k(   16) = (   0.0000000   0.5000000   0.0000000), wk =   0.0252293
        k(   17) = (   0.0000000   0.6000000   0.0000000), wk =   0.0273194
        k(   18) = (   0.0000000   0.7000000   0.0000000), wk =   0.0294094
        k(   19) = (   0.0000000   0.8000000   0.0000000), wk =   0.0314995
        k(   20) = (   0.0000000   0.9000000   0.0000000), wk =   0.0335896
        k(   21) = (   0.0000000   1.0000000   0.0000000), wk =   0.0356796
        k(   22) = (   0.0000000   0.9750000   0.0750000), wk =   0.0370621
        k(   23) = (   0.0000000   0.9500000   0.1500000), wk =   0.0384445
        k(   24) = (  -0.0000000   0.9250000   0.2250000), wk =   0.0398270
        k(   25) = (  -0.0000000   0.9000000   0.3000000), wk =   0.0412094
        k(   26) = (   0.0000000   0.8750000   0.3750000), wk =   0.0425919
        k(   27) = (   0.0000000   0.8500000   0.4500000), wk =   0.0439743
        k(   28) = (   0.0000000   0.8250000   0.5250000), wk =   0.0453568
        k(   29) = (  -0.0000000   0.8000000   0.6000000), wk =   0.0467392
        k(   30) = (  -0.0000000   0.7750000   0.6750000), wk =   0.0481217
        k(   31) = (   0.0000000   0.7500000   0.7500000), wk =   0.0495041
        k(   32) = (   0.0000000   0.7250000   0.7750000), wk =   0.0500266
        k(   33) = (   0.0000000   0.7000000   0.8000000), wk =   0.0505491
        k(   34) = (   0.0000000   0.6750000   0.8250000), wk =   0.0510717
        k(   35) = (   0.0000000   0.6500000   0.8500000), wk =   0.0515942
        k(   36) = (   0.0000000   0.6250000   0.8750000), wk =   0.0521167
        k(   37) = (   0.0000000   0.6000000   0.9000000), wk =   0.0526392
        k(   38) = (   0.0000000   0.5750000   0.9250000), wk =   0.0531617
        k(   39) = (   0.0000000   0.5500000   0.9500000), wk =   0.0536842
        k(   40) = (   0.0000000   0.5250000   0.9750000), wk =   0.0542067
        k(   41) = (   0.0000000   0.5000000   1.0000000), wk =   0.0547293
        k(   42) = (   0.0000000   0.4500000   0.9000000), wk =   0.0574942
        k(   43) = (  -0.0000000   0.4000000   0.8000000), wk =   0.0602591
        k(   44) = (  -0.0000000   0.3500000   0.7000000), wk =   0.0630239
        k(   45) = (  -0.0000000   0.3000000   0.6000000), wk =   0.0657888
        k(   46) = (   0.0000000   0.2500000   0.5000000), wk =   0.0685537
        k(   47) = (   0.0000000   0.2000000   0.4000000), wk =   0.0713186
        k(   48) = (   0.0000000   0.1500000   0.3000000), wk =   0.0740835
        k(   49) = (  -0.0000000   0.1000000   0.2000000), wk =   0.0768484
        k(   50) = (  -0.0000000   0.0500000   0.1000000), wk =   0.0796133
        k(   51) = (   0.0000000   0.0000000   0.0000000), wk =   0.0823782

     Dense  grid:    12939 G-vectors     FFT dimensions: (  36,  36,  36)

     Largest allocated arrays     est. size (Mb)     dimensions
        Kohn-Sham Wavefunctions         0.30 Mb     (    1639,   12)
        NL pseudopotentials             0.55 Mb     (    1639,   22)
        Each V/rho on FFT grid          0.71 Mb     (   46656)
        Each G-vector array             0.10 Mb     (   12939)
        G-vector shells                 0.00 Mb     (     180)
     Largest temporary arrays     est. size (Mb)     dimensions
        Auxiliary wavefunctions         1.20 Mb     (    1639,   48)
        Each subspace H/S matrix        0.04 Mb     (      48,   48)
        Each <psi_i|beta_j> matrix      0.00 Mb     (      22,   12)

     Check: negative/imaginary core charge=   -0.000048    0.000000

     The potential is recalculated from file :
     ./out/Si.save/charge-density.dat

     Starting wfc are   32 randomized atomic wfcs

     Band Structure Calculation
     Davidson diagonalization with overlap

     ethr =  2.00E-11,  avg # of iterations = 20.4

     total cpu time spent up to now is       31.5 secs

     End of band structure calculation

          k = 0.5000 0.5000 0.5000 (  1622 PWs)   bands (ev):

    -6.5974  -2.7077   2.1975   2.1975   4.3855   7.4306   7.4306  10.8953
    14.1960  14.4661  14.9049  14.9049

          k = 0.4500 0.4500 0.4500 (  1610 PWs)   bands (ev):

    -6.6669  -2.5843   2.2155   2.2155   4.4013   7.4221   7.4221  10.7754
    13.8467  14.6674  14.6674  14.9160

          k = 0.4000 0.4000 0.4000 (  1616 PWs)   bands (ev):

    -6.8508  -2.2401   2.2690   2.2690   4.4477   7.3922   7.3922  10.4253
    13.5598  14.1957  14.1957  15.4571

          k = 0.3500 0.3500 0.3500 (  1610 PWs)   bands (ev):

    -7.0971  -1.7286   2.3566   2.3566   4.5221   7.3288   7.3288   9.8907
    13.4305  13.7422  13.7422  15.8354

          k = 0.3000 0.3000 0.3000 (  1615 PWs)   bands (ev):

    -7.3606  -1.0986   2.4757   2.4757   4.6185   7.2174   7.2174   9.2414
    13.3819  13.4095  13.4095  15.9298

          k = 0.2500 0.2500 0.2500 (  1618 PWs)   bands (ev):

    -7.6114  -0.3851   2.6217   2.6217   4.7260   7.0501   7.0501   8.5357
    13.2394  13.2394  13.2989  15.8264

          k = 0.2000 0.2000 0.2000 (  1606 PWs)   bands (ev):

    -7.8317   0.3863   2.7866   2.7866   4.8240   6.8342   6.8342   7.8159
    13.0780  13.2402  13.2402  15.7737

          k = 0.1500 0.1500 0.1500 (  1600 PWs)   bands (ev):

    -8.0107   1.1933   2.9575   2.9575   4.8685   6.5947   6.5947   7.1292
    12.7272  13.3929  13.3929  15.8975

          k = 0.1000 0.1000 0.1000 (  1606 PWs)   bands (ev):

    -8.1422   2.0104   3.1141   3.1141   4.7690   6.3708   6.3708   6.5640
    12.3621  13.6510  13.6510  16.1426

          k = 0.0500 0.0500 0.0500 (  1630 PWs)   bands (ev):

    -8.2224   2.7896   3.2283   3.2283   4.4238   6.2084   6.2084   6.2385
    12.0968  13.9252  13.9252  16.3850

          k = 0.0000 0.0000 0.0000 (  1639 PWs)   bands (ev):

    -8.2493   3.2708   3.2708   3.2708   4.0721   6.1484   6.1484   6.1484
    12.0007  14.0552  14.0552  16.4889

          k = 0.0000 0.1000 0.0000 (  1627 PWs)   bands (ev):

    -8.2134   2.7612   3.1481   3.1481   4.5599   6.0875   6.3095   6.3095
    12.1291  13.6836  14.0993  16.5671

          k = 0.0000 0.2000 0.0000 (  1599 PWs)   bands (ev):

    -8.1062   1.9864   2.8466   2.8466   5.2557   5.9243   6.7254   6.7254
    12.4870  12.9369  14.2308  16.7992

          k = 0.0000 0.3000 0.0000 (  1607 PWs)   bands (ev):

    -7.9299   1.1908   2.4732   2.4732   5.7030   5.8712   7.2863   7.2863
    12.1888  13.0339  14.4481  17.1753

          k = 0.0000 0.4000 0.0000 (  1607 PWs)   bands (ev):

    -7.6878   0.4037   2.0951   2.0951   5.4698   6.3008   7.9196   7.9196
    11.6731  13.6659  14.7476  17.6699

          k = 0.0000 0.5000 0.0000 (  1612 PWs)   bands (ev):

    -7.3862  -0.3624   1.7472   1.7472   5.2598   6.4565   8.5826   8.5826
    11.5049  14.3018  15.1230  18.2091

          k = 0.0000 0.6000 0.0000 (  1620 PWs)   bands (ev):

    -7.0352  -1.0954   1.4477   1.4477   5.0981   6.3409   9.2428   9.2428
    11.6974  14.8177  15.5626  18.5555

          k = 0.0000 0.7000 0.0000 (  1632 PWs)   bands (ev):

    -6.6528  -1.7761   1.2070   1.2070   5.0013   6.0625   9.8653   9.8653
    12.1419  15.0814  16.0443  18.3581

          k = 0.0000 0.8000 0.0000 (  1624 PWs)   bands (ev):

    -6.2732  -2.3695   1.0315   1.0315   4.9798   5.7400  10.4008  10.4008
    12.7062  15.0350  16.5236  17.8639

          k = 0.0000 0.9000 0.0000 (  1608 PWs)   bands (ev):

    -5.9647  -2.8066   0.9249   0.9249   5.0367   5.4510  10.7781  10.7781
    13.2679  14.7602  16.9116  17.4489

          k = 0.0000 1.0000 0.0000 (  1604 PWs)   bands (ev):

    -5.8385  -2.9758   0.8891   0.8891   5.1227   5.2838  10.9168  10.9168
    13.5756  14.5415  17.0693  17.2908

          k = 0.0000 0.9750 0.0750 (  1618 PWs)   bands (ev):

    -5.8443  -2.9570   0.8457   0.8570   5.2054   5.3888  10.8250  10.8590
    13.4923  14.4951  16.6916  17.3672

          k = 0.0000 0.9500 0.1500 (  1622 PWs)   bands (ev):

    -5.8601  -2.9052   0.7258   0.7791   5.4509   5.6772  10.5255  10.7042
    13.3127  14.3539  16.3596  17.5575

          k =-0.0000 0.9250 0.2250 (  1622 PWs)   bands (ev):

    -5.8821  -2.8334   0.5567   0.6958   5.8383   6.0971  10.0146  10.4789
    13.1246  14.1537  16.1549  17.7894

          k =-0.0000 0.9000 0.3000 (  1623 PWs)   bands (ev):

    -5.9052  -2.7605   0.3699   0.6484   6.3335   6.5916   9.3639  10.1999
    12.9197  13.9811  16.0298  18.0087

          k = 0.0000 0.8750 0.3750 (  1614 PWs)   bands (ev):

    -5.9247  -2.7050   0.1916   0.6667   6.8997   7.0632   8.7154   9.8816
    12.6631  13.8988  15.9268  18.1899

          k = 0.0000 0.8500 0.4500 (  1612 PWs)   bands (ev):

    -5.9370  -2.6794   0.0409   0.7614   7.1627   7.5090   8.4378   9.5462
    12.3737  13.8987  15.8046  18.3406

          k = 0.0000 0.8250 0.5250 (  1611 PWs)   bands (ev):

    -5.9399  -2.6851  -0.0700   0.9192   6.6920   8.0729   8.7422   9.2663
    12.0963  13.9534  15.6487  18.5029

          k =-0.0000 0.8000 0.6000 (  1614 PWs)   bands (ev):

    -5.9321  -2.7142  -0.1330   1.0992   6.1241   8.3233   9.0844   9.3592
    11.8767  14.0613  15.4685  18.7157

          k =-0.0000 0.7750 0.6750 (  1621 PWs)   bands (ev):

    -5.9142  -2.7552  -0.1441   1.2342   5.6881   8.0943   9.5034   9.6783
    11.7750  14.2489  15.2785  18.9664

          k = 0.0000 0.7500 0.7500 (  1624 PWs)   bands (ev):

    -5.8879  -2.7972  -0.1017   1.2462   5.4934   7.7487   9.8438   9.8543
    11.8682  14.5135  15.1100  19.0671

          k = 0.0000 0.7250 0.7750 (  1616 PWs)   bands (ev):

    -5.8860  -2.7971  -0.0980   1.2247   5.5302   7.7502   9.7826   9.8668
    11.8923  14.4914  15.1417  18.9972

          k = 0.0000 0.7000 0.8000 (  1621 PWs)   bands (ev):

    -5.8805  -2.7970  -0.0869   1.1630   5.6374   7.7546   9.6749   9.8338
    11.9605  14.4345  15.2252  18.8523

          k = 0.0000 0.6750 0.8250 (  1620 PWs)   bands (ev):

    -5.8717  -2.7970  -0.0687   1.0687   5.8075   7.7613   9.5352   9.7550
    12.0629  14.3585  15.3399  18.6922

          k = 0.0000 0.6500 0.8500 (  1616 PWs)   bands (ev):

    -5.8601  -2.7974  -0.0433   0.9522   6.0298   7.7691   9.3737   9.6388
    12.1869  14.2734  15.4684  18.5372

          k = 0.0000 0.6250 0.8750 (  1616 PWs)   bands (ev):

    -5.8465  -2.7986  -0.0113   0.8241   6.2931   7.7761   9.1989   9.4959
    12.3203  14.1851  15.5969  18.3969

          k = 0.0000 0.6000 0.9000 (  1613 PWs)   bands (ev):

    -5.8318  -2.8006   0.0268   0.6941   6.5858   7.7794   9.0182   9.3382
    12.4514  14.0988  15.7132  18.2776

          k = 0.0000 0.5750 0.9250 (  1615 PWs)   bands (ev):

    -5.8175  -2.8036   0.0701   0.5711   6.8951   7.7746   8.8383   9.1794
    12.5689  14.0209  15.8072  18.1842

          k = 0.0000 0.5500 0.9500 (  1615 PWs)   bands (ev):

    -5.8049  -2.8072   0.1161   0.4635   7.2033   7.7554   8.6688   9.0357
    12.6613  13.9593  15.8725  18.1198

          k = 0.0000 0.5250 0.9750 (  1615 PWs)   bands (ev):

    -5.7958  -2.8106   0.1582   0.3824   7.4766   7.7150   8.5306   8.9275
    12.7186  13.9215  15.9076  18.0842

          k = 0.0000 0.5000 1.0000 (  1628 PWs)   bands (ev):

    -5.7924  -2.8122   0.1775   0.3497   7.6293   7.6614   8.4724   8.8826
    12.7369  13.9098  15.9175  18.0735

          k = 0.0000 0.4500 0.9000 (  1616 PWs)   bands (ev):

    -5.8595  -2.7541   0.0825   0.5833   7.3279   7.5079   8.4756   9.3501
    12.5418  13.9436  15.8523  18.2114

          k =-0.0000 0.4000 0.8000 (  1616 PWs)   bands (ev):

    -6.0768  -2.5378   0.1312   0.9325   7.0378   7.1105   8.4157   9.8718
    12.4850  13.7304  15.8549  18.3613

          k =-0.0000 0.3500 0.7000 (  1618 PWs)   bands (ev):

    -6.4154  -2.1422   0.3513   1.3152   6.7401   6.7770   8.4205   9.6975
    12.8096  13.4822  15.7409  18.1942

          k =-0.0000 0.3000 0.6000 (  1609 PWs)   bands (ev):

    -6.8104  -1.5887   0.7053   1.7058   6.4471   6.5238   8.4664   9.1298
    12.5180  13.9002  15.2915  17.8875

          k = 0.0000 0.2500 0.5000 (  1610 PWs)   bands (ev):

    -7.2048  -0.9066   1.1576   2.0838   6.2375   6.2616   8.4167   8.5033
    12.1389  14.0683  14.7120  17.5195

          k = 0.0000 0.2000 0.4000 (  1613 PWs)   bands (ev):

    -7.5604  -0.1196   1.6740   2.4349   5.9643   6.1171   7.8018   8.2135
    12.0422  13.7452  14.2676  17.1137

          k = 0.0000 0.1500 0.3000 (  1607 PWs)   bands (ev):

    -7.8538   0.7516   2.2145   2.7491   5.6170   6.0742   7.1970   7.6481
    12.3495  13.1761  14.0455  16.7818

          k =-0.0000 0.1000 0.2000 (  1600 PWs)   bands (ev):

    -8.0712   1.6824   2.7239   3.0132   5.1847   6.0899   6.6762   6.9331
    12.5870  12.9725  13.9973  16.5768

          k =-0.0000 0.0500 0.1000 (  1623 PWs)   bands (ev):

    -8.2044   2.6240   3.1161   3.2006   4.5997   6.1287   6.2956   6.3578
    12.1597  13.6762  14.0312  16.4985

          k = 0.0000 0.0000 0.0000 (  1639 PWs)   bands (ev):

    -8.2493   3.2708   3.2708   3.2708   4.0721   6.1484   6.1484   6.1484
    12.0007  14.0552  14.0552  16.4889

     Writing output data file Si.save

     init_run     :      0.35s CPU      0.35s WALL (       1 calls)
     electrons    :     29.24s CPU     29.55s WALL (       1 calls)

     Called by init_run:
     wfcinit      :      0.00s CPU      0.00s WALL (       1 calls)
     potinit      :      0.05s CPU      0.05s WALL (       1 calls)

     Called by electrons:
     c_bands      :     29.24s CPU     29.55s WALL (       1 calls)
     v_of_rho     :      0.04s CPU      0.04s WALL (       1 calls)

     Called by c_bands:
     init_us_2    :      0.08s CPU      0.08s WALL (      51 calls)
     cegterg      :     24.07s CPU     24.30s WALL (      77 calls)

     Called by *egterg:
     h_psi        :     23.96s CPU     24.23s WALL (    1170 calls)
     g_psi        :      0.06s CPU      0.06s WALL (    1042 calls)
     cdiaghg      :      0.62s CPU      0.62s WALL (    1093 calls)

     Called by h_psi:
     add_vuspsi   :      0.69s CPU      0.69s WALL (    1170 calls)

     General routines
     calbec       :      0.77s CPU      0.78s WALL (    1170 calls)
     fft          :      0.02s CPU      0.02s WALL (      11 calls)
     fftw         :     21.02s CPU     21.27s WALL (   18418 calls)
     davcio       :      0.00s CPU      0.01s WALL (      51 calls)

     Parallel routines
     fft_scatter  :      0.62s CPU      0.61s WALL (   18429 calls)

     PWSCF        :    31.14s CPU        31.69s WALL


   This run was terminated on:  12: 6:28  27Feb2023            

=------------------------------------------------------------------------------=
   JOB DONE.
=------------------------------------------------------------------------------=
