
     Program PWSCF v.5.1 starts on 27Feb2023 at 12: 0:36 

     This program is part of the open-source Quantum ESPRESSO suite
     for quantum simulation of materials; please cite
         "P. Giannozzi et al., J. Phys.:Condens. Matter 21 395502 (2009);
          URL http://www.quantum-espresso.org", 
     in publications or presentations arising from this work. More details at
     http://www.quantum-espresso.org/quote

     Parallel version (MPI), running on     1 processors
     Waiting for input...
     Reading input from standard input
Warning: card    SI   -0.50    0.00    0.50 ignored
Warning: card    SI   -0.25    0.25    0.75 ignored

     Current dimensions of program PWSCF are:
     Max number of different atomic species (ntypx) = 10
     Max number of k-points (npk) =  40000
     Max angular momentum in pseudopotentials (lmaxx) =  3

     Atomic positions and unit cell read from directory:
     ./out/Si.save/

               file Si.pbe-mt_fhi.UPF: wavefunction(s)  4f renormalized
               file B.pbe-mt_fhi.UPF: wavefunction(s)  4f renormalized
               file P.pbe-mt_fhi.UPF: wavefunction(s)  4f renormalized

     Subspace diagonalization in iterative solution of the eigenvalue problem:
     a serial algorithm will be used


     G-vector sticks info
     --------------------
     sticks:   dense  smooth     PW     G-vecs:    dense   smooth      PW
     Sum         733     733    223                12939    12939    2229



     bravais-lattice index     =            2
     lattice parameter (alat)  =      10.2623  a.u.
     unit-cell volume          =     270.1967 (a.u.)^3
     number of atoms/cell      =            2
     number of atomic types    =            3
     number of electrons       =         8.00
     number of Kohn-Sham states=           12
     kinetic-energy cutoff     =      50.0000  Ry
     charge density cutoff     =     200.0000  Ry
     Exchange-correlation      = PBE ( 1  4  3  4 0)

     celldm(1)=  10.262347  celldm(2)=   0.000000  celldm(3)=   0.000000
     celldm(4)=   0.000000  celldm(5)=   0.000000  celldm(6)=   0.000000

     crystal axes: (cart. coord. in units of alat)
               a(1) = (  -0.500000   0.000000   0.500000 )  
               a(2) = (   0.000000   0.500000   0.500000 )  
               a(3) = (  -0.500000   0.500000   0.000000 )  

     reciprocal axes: (cart. coord. in units 2 pi/alat)
               b(1) = ( -1.000000 -1.000000  1.000000 )  
               b(2) = (  1.000000  1.000000  1.000000 )  
               b(3) = ( -1.000000  1.000000 -1.000000 )  


     PseudoPot. # 1 for Si read from file:
     /home/acedemo/psudo/Si.pbe-mt_fhi.UPF
     MD5 check sum: 259057c2adf9952f9ced37ae3d9e311d
     Pseudo is Norm-conserving, Zval =  4.0
     Generated using FHI98PP, converted with fhi2upf.x v.5.0.2
     Using radial grid of  495 points,  3 beta functions with: 
                l(1) =   0
                l(2) =   1
                l(3) =   3

     PseudoPot. # 2 for  B read from file:
     /home/acedemo/psudo/B.pbe-mt_fhi.UPF
     MD5 check sum: 3ba04917d1d3a8de85490f79a9c37fe5
     Pseudo is Norm-conserving + core correction, Zval =  3.0
     Generated using FHI98PP, converted with fhi2upf.x v.5.0.2
     Using radial grid of  453 points,  3 beta functions with: 
                l(1) =   0
                l(2) =   1
                l(3) =   3

     PseudoPot. # 3 for  P read from file:
     /home/acedemo/psudo/P.pbe-mt_fhi.UPF
     MD5 check sum: 7191c457fb61afa58d0f00d0e4a443c1
     Pseudo is Norm-conserving, Zval =  5.0
     Generated using FHI98PP, converted with fhi2upf.x v.5.0.2
     Using radial grid of  499 points,  3 beta functions with: 
                l(1) =   0
                l(2) =   1
                l(3) =   3

     atomic species   valence    mass     pseudopotential
        Si             4.00    28.08550     Si( 1.00)
        B              3.00    10.81100      B( 1.00)
        P              5.00    30.97376      P( 1.00)

     24 Sym. Ops. (no inversion) found



   Cartesian axes

     site n.     atom                  positions (alat units)
         1           B   tau(   1) = (   0.0000000   0.0000000   0.0000000  )
         2           P   tau(   2) = (   0.2500000   0.2500000   0.2500000  )

     number of k points=    72 (tetrahedron method)
                       cart. coord. in units 2pi/alat
        k(    1) = (   0.0000000   0.0000000   0.0000000), wk =   0.0011574
        k(    2) = (  -0.0833333   0.0833333  -0.0833333), wk =   0.0092593
        k(    3) = (  -0.1666667   0.1666667  -0.1666667), wk =   0.0092593
        k(    4) = (  -0.2500000   0.2500000  -0.2500000), wk =   0.0092593
        k(    5) = (  -0.3333333   0.3333333  -0.3333333), wk =   0.0092593
        k(    6) = (  -0.4166667   0.4166667  -0.4166667), wk =   0.0092593
        k(    7) = (   0.5000000  -0.5000000   0.5000000), wk =   0.0046296
        k(    8) = (   0.0000000   0.1666667   0.0000000), wk =   0.0069444
        k(    9) = (  -0.0833333   0.2500000  -0.0833333), wk =   0.0277778
        k(   10) = (  -0.1666667   0.3333333  -0.1666667), wk =   0.0277778
        k(   11) = (  -0.2500000   0.4166667  -0.2500000), wk =   0.0277778
        k(   12) = (  -0.3333333   0.5000000  -0.3333333), wk =   0.0277778
        k(   13) = (   0.5833333  -0.4166667   0.5833333), wk =   0.0277778
        k(   14) = (   0.5000000  -0.3333333   0.5000000), wk =   0.0277778
        k(   15) = (   0.4166667  -0.2500000   0.4166667), wk =   0.0277778
        k(   16) = (   0.3333333  -0.1666667   0.3333333), wk =   0.0277778
        k(   17) = (   0.2500000  -0.0833333   0.2500000), wk =   0.0277778
        k(   18) = (   0.1666667  -0.0000000   0.1666667), wk =   0.0138889
        k(   19) = (   0.0000000   0.3333333   0.0000000), wk =   0.0069444
        k(   20) = (  -0.0833333   0.4166667  -0.0833333), wk =   0.0277778
        k(   21) = (  -0.1666667   0.5000000  -0.1666667), wk =   0.0277778
        k(   22) = (  -0.2500000   0.5833333  -0.2500000), wk =   0.0277778
        k(   23) = (   0.6666667  -0.3333333   0.6666667), wk =   0.0277778
        k(   24) = (   0.5833333  -0.2500000   0.5833333), wk =   0.0277778
        k(   25) = (   0.5000000  -0.1666667   0.5000000), wk =   0.0277778
        k(   26) = (   0.4166667  -0.0833333   0.4166667), wk =   0.0277778
        k(   27) = (   0.3333333   0.0000000   0.3333333), wk =   0.0138889
        k(   28) = (   0.0000000   0.5000000   0.0000000), wk =   0.0069444
        k(   29) = (  -0.0833333   0.5833333  -0.0833333), wk =   0.0277778
        k(   30) = (  -0.1666667   0.6666667  -0.1666667), wk =   0.0277778
        k(   31) = (   0.7500000  -0.2500000   0.7500000), wk =   0.0277778
        k(   32) = (   0.6666667  -0.1666667   0.6666667), wk =   0.0277778
        k(   33) = (   0.5833333  -0.0833333   0.5833333), wk =   0.0277778
        k(   34) = (   0.5000000   0.0000000   0.5000000), wk =   0.0138889
        k(   35) = (   0.0000000   0.6666667   0.0000000), wk =   0.0069444
        k(   36) = (  -0.0833333   0.7500000  -0.0833333), wk =   0.0277778
        k(   37) = (   0.8333333  -0.1666667   0.8333333), wk =   0.0277778
        k(   38) = (   0.7500000  -0.0833333   0.7500000), wk =   0.0277778
        k(   39) = (   0.6666667   0.0000000   0.6666667), wk =   0.0138889
        k(   40) = (   0.0000000   0.8333333   0.0000000), wk =   0.0069444
        k(   41) = (   0.9166667  -0.0833333   0.9166667), wk =   0.0277778
        k(   42) = (   0.8333333   0.0000000   0.8333333), wk =   0.0138889
        k(   43) = (   0.0000000  -1.0000000   0.0000000), wk =   0.0034722
        k(   44) = (  -0.1666667   0.3333333   0.0000000), wk =   0.0277778
        k(   45) = (  -0.2500000   0.4166667  -0.0833333), wk =   0.0555556
        k(   46) = (  -0.3333333   0.5000000  -0.1666667), wk =   0.0555556
        k(   47) = (   0.5833333  -0.4166667   0.7500000), wk =   0.0555556
        k(   48) = (   0.5000000  -0.3333333   0.6666667), wk =   0.0277778
        k(   49) = (  -0.1666667   0.5000000   0.0000000), wk =   0.0277778
        k(   50) = (  -0.2500000   0.5833333  -0.0833333), wk =   0.0555556
        k(   51) = (   0.6666667  -0.3333333   0.8333333), wk =   0.0555556
        k(   52) = (   0.5833333  -0.2500000   0.7500000), wk =   0.0555556
        k(   53) = (   0.5000000  -0.1666667   0.6666667), wk =   0.0555556
        k(   54) = (   0.4166667  -0.0833333   0.5833333), wk =   0.0555556
        k(   55) = (   0.3333333   0.0000000   0.5000000), wk =   0.0277778
        k(   56) = (  -0.1666667   0.6666667  -0.0000000), wk =   0.0277778
        k(   57) = (   0.7500000  -0.2500000   0.9166667), wk =   0.0555556
        k(   58) = (   0.6666667  -0.1666667   0.8333333), wk =   0.0555556
        k(   59) = (   0.5833333  -0.0833333   0.7500000), wk =   0.0555556
        k(   60) = (   0.5000000   0.0000000   0.6666667), wk =   0.0277778
        k(   61) = (   0.8333333  -0.1666667   1.0000000), wk =   0.0277778
        k(   62) = (   0.7500000  -0.0833333   0.9166667), wk =   0.0555556
        k(   63) = (   0.6666667   0.0000000   0.8333333), wk =   0.0277778
        k(   64) = (  -0.1666667  -1.0000000   0.0000000), wk =   0.0138889
        k(   65) = (   0.6666667  -0.3333333   1.0000000), wk =   0.0277778
        k(   66) = (   0.5833333  -0.2500000   0.9166667), wk =   0.0555556
        k(   67) = (   0.5000000  -0.1666667   0.8333333), wk =   0.0277778
        k(   68) = (   0.6666667  -0.1666667   1.0000000), wk =   0.0277778
        k(   69) = (   0.5833333  -0.0833333   0.9166667), wk =   0.0555556
        k(   70) = (   0.5000000   0.0000000   0.8333333), wk =   0.0277778
        k(   71) = (  -0.3333333  -1.0000000   0.0000000), wk =   0.0138889
        k(   72) = (  -0.5000000  -1.0000000   0.0000000), wk =   0.0069444

     Dense  grid:    12939 G-vectors     FFT dimensions: (  36,  36,  36)

     Largest allocated arrays     est. size (Mb)     dimensions
        Kohn-Sham Wavefunctions         0.30 Mb     (    1639,   12)
        NL pseudopotentials             0.55 Mb     (    1639,   22)
        Each V/rho on FFT grid          0.71 Mb     (   46656)
        Each G-vector array             0.10 Mb     (   12939)
        G-vector shells                 0.00 Mb     (     180)
     Largest temporary arrays     est. size (Mb)     dimensions
        Auxiliary wavefunctions         1.20 Mb     (    1639,   48)
        Each subspace H/S matrix        0.04 Mb     (      48,   48)
        Each <psi_i|beta_j> matrix      0.00 Mb     (      22,   12)

     Check: negative/imaginary core charge=   -0.000048    0.000000

     The potential is recalculated from file :
     ./out/Si.save/charge-density.dat

     Starting wfc are   32 randomized atomic wfcs

     Band Structure Calculation
     Davidson diagonalization with overlap

     ethr =  2.00E-11,  avg # of iterations = 21.6

     total cpu time spent up to now is       45.1 secs

     End of band structure calculation

          k = 0.0000 0.0000 0.0000 (  1639 PWs)   bands (ev):

    -8.2493   3.2708   3.2708   3.2708   4.0721   6.1484   6.1484   6.1484
    12.0007  14.0552  14.0552  16.4889

          k =-0.0833 0.0833-0.0833 (  1612 PWs)   bands (ev):

    -8.1747   2.2784   3.1584   3.1584   4.6824   6.3076   6.3076   6.4252
    12.2582  13.7470  13.7470  16.2306

          k =-0.1667 0.1667-0.1667 (  1591 PWs)   bands (ev):

    -7.9560   0.9218   2.9009   2.9009   4.8640   6.6749   6.6749   7.3503
    12.8523  13.3273  13.3273  15.8377

          k =-0.2500 0.2500-0.2500 (  1618 PWs)   bands (ev):

    -7.6114  -0.3851   2.6217   2.6217   4.7260   7.0501   7.0501   8.5357
    13.2394  13.2394  13.2989  15.8264

          k =-0.3333 0.3333-0.3333 (  1616 PWs)   bands (ev):

    -7.1848  -1.5298   2.3930   2.3930   4.5521   7.2976   7.2976   9.6837
    13.4105  13.6150  13.6150  15.8999

          k =-0.4167 0.4167-0.4167 (  1616 PWs)   bands (ev):

    -6.7799  -2.3762   2.2473   2.2473   4.4289   7.4052   7.4052  10.5656
    13.6361  14.3591  14.3591  15.2864

          k = 0.5000-0.5000 0.5000 (  1622 PWs)   bands (ev):

    -6.5974  -2.7077   2.1975   2.1975   4.3855   7.4306   7.4306  10.8953
    14.1960  14.4661  14.9049  14.9049

          k = 0.0000 0.1667 0.0000 (  1615 PWs)   bands (ev):

    -8.1498   2.2498   2.9598   2.9598   5.0270   5.9876   6.5658   6.5658
    12.3465  13.1964  14.1773  16.7052

          k =-0.0833 0.2500-0.0833 (  1599 PWs)   bands (ev):

    -7.9786   1.2177   2.6637   2.7486   5.3744   6.0674   6.9954   7.2211
    12.6210  12.8653  14.0573  16.4148

          k =-0.1667 0.3333-0.1667 (  1610 PWs)   bands (ev):

    -7.6745  -0.0220   2.3830   2.4607   5.2888   6.4917   7.4067   8.1853
    12.4337  13.4236  13.9340  16.1963

          k =-0.2500 0.4167-0.2500 (  1606 PWs)   bands (ev):

    -7.2701  -1.1859   2.1506   2.1772   5.1092   6.9218   7.6605   9.1583
    12.7456  13.6441  14.1794  16.2313

          k =-0.3333 0.5000-0.3333 (  1616 PWs)   bands (ev):

    -6.8439  -2.1261   1.8931   2.0717   4.9602   7.2018   7.7295  10.0577
    13.3822  13.7610  14.7490  15.8114

          k = 0.5833-0.4167 0.5833 (  1615 PWs)   bands (ev):

    -6.5642  -2.6440   1.7241   2.0740   4.8813   7.3618   7.6759  10.6632
    13.6316  14.3346  14.9311  15.3386

          k = 0.5000-0.3333 0.5000 (  1616 PWs)   bands (ev):

    -6.6275  -2.5319   1.6616   2.1809   4.8849   7.4637   7.5548  10.5760
    13.6042  14.1009  14.6299  15.6171

          k = 0.4167-0.2500 0.4167 (  1611 PWs)   bands (ev):

    -6.9816  -1.8448   1.7158   2.3800   4.9671   7.3622   7.4919   9.8340
    13.2243  13.5253  14.4179  16.0662

          k = 0.3333-0.1667 0.3333 (  1605 PWs)   bands (ev):

    -7.4138  -0.8148   1.8922   2.6466   5.1033   7.0621   7.3416   8.8584
    12.7286  13.4539  13.9175  16.2966

          k = 0.2500-0.0833 0.2500 (  1600 PWs)   bands (ev):

    -7.7901   0.3744   2.1958   2.9319   5.2172   6.6796   6.9264   7.9098
    12.7135  13.2120  13.6010  16.3005

          k = 0.1667-0.0000 0.1667 (  1592 PWs)   bands (ev):

    -8.0519   1.5251   2.6485   3.1427   5.0857   6.3630   6.4778   7.0561
    12.6379  13.1152  13.7373  16.4923

          k = 0.0000 0.3333 0.0000 (  1607 PWs)   bands (ev):

    -7.8563   0.9268   2.3455   2.3455   5.6246   6.0401   7.4918   7.4918
    11.9849  13.2375  14.5391  17.3291

          k =-0.0833 0.4167-0.0833 (  1616 PWs)   bands (ev):

    -7.5976   0.0596   2.0186   2.0542   5.6428   6.2426   7.9803   8.1310
    11.7748  13.7892  14.6426  17.2157

          k =-0.1667 0.5000-0.1667 (  1611 PWs)   bands (ev):

    -7.2278  -0.9546   1.6229   1.8480   5.7050   6.5711   8.3058   8.6685
    12.1756  14.0964  14.8273  17.1198

          k =-0.2500 0.5833-0.2500 (  1610 PWs)   bands (ev):

    -6.8061  -1.8750   1.2435   1.7529   5.6159   7.0769   8.4045   9.1763
    12.9120  14.0270  15.2110  16.7951

          k = 0.6667-0.3333 0.6667 (  1607 PWs)   bands (ev):

    -6.4654  -2.4970   0.9535   1.7764   5.5431   7.4164   8.3216   9.8693
    12.9529  14.3978  15.0320  16.3711

          k = 0.5833-0.2500 0.5833 (  1602 PWs)   bands (ev):

    -6.4101  -2.5873   0.7905   1.9139   5.5358   7.6157   8.1244  10.2643
    12.6756  14.0237  14.9301  16.4326

          k = 0.5000-0.1667 0.5000 (  1610 PWs)   bands (ev):

    -6.6849  -2.1036   0.7823   2.1485   5.5887   7.7479   7.8315   9.7114
    13.0694  13.1306  14.9061  16.7928

          k = 0.4167-0.0833 0.4167 (  1613 PWs)   bands (ev):

    -7.1000  -1.2756   0.9685   2.4463   5.6553   7.4348   7.6930   8.9030
    12.5005  13.6363  14.3970  17.1418

          k = 0.3333 0.0000 0.3333 (  1604 PWs)   bands (ev):

    -7.4937  -0.3744   1.4251   2.7435   5.5998   6.9935   7.2661   8.4070
    12.3996  13.6774  13.8045  17.0174

          k = 0.0000 0.5000 0.0000 (  1612 PWs)   bands (ev):

    -7.3862  -0.3624   1.7472   1.7472   5.2598   6.4565   8.5826   8.5826
    11.5049  14.3018  15.1230  18.2091

          k =-0.0833 0.5833-0.0833 (  1617 PWs)   bands (ev):

    -7.0598  -1.0813   1.3794   1.5251   5.3449   6.4561   8.9819   9.0385
    11.8725  14.6310  15.4217  18.2939

          k =-0.1667 0.6667-0.1667 (  1620 PWs)   bands (ev):

    -6.6650  -1.8306   0.8840   1.4178   5.5531   6.8232   9.0708   9.2359
    12.6573  14.4444  15.6880  17.9358

          k = 0.7500-0.2500 0.7500 (  1617 PWs)   bands (ev):

    -6.3056  -2.4159   0.4350   1.4353   5.6123   7.5888   9.1786   9.1839
    12.7602  14.4871  15.2609  17.8487

          k = 0.6667-0.1667 0.6667 (  1607 PWs)   bands (ev):

    -6.1631  -2.6209   0.1414   1.5747   5.6767   8.1687   8.9296   9.5785
    12.0015  14.1780  15.1034  17.7724

          k = 0.5833-0.0833 0.5833 (  1611 PWs)   bands (ev):

    -6.3430  -2.3506   0.0744   1.8191   5.7805   8.4173   8.5241   9.4751
    12.0505  13.2154  15.3499  17.9233

          k = 0.5000 0.0000 0.5000 (  1604 PWs)   bands (ev):

    -6.7121  -1.8118   0.3240   2.1326   5.8429   7.9892   8.3390   8.8638
    12.6415  12.9935  15.0228  17.8323

          k = 0.0000 0.6667 0.0000 (  1624 PWs)   bands (ev):

    -6.7821  -1.5567   1.2802   1.2802   5.0256   6.1653   9.6646   9.6646
    11.9743  15.0278  15.8811  18.4821

          k =-0.0833 0.7500-0.0833 (  1618 PWs)   bands (ev):

    -6.4349  -2.1184   0.9299   1.1487   5.1881   6.0921   9.9130  10.0192
    12.6004  14.8534  16.1777  18.0098

          k = 0.8333-0.1667 0.8333 (  1619 PWs)   bands (ev):

    -6.1055  -2.5683   0.4028   1.1446   5.3939   6.6732   9.8549  10.0380
    12.8723  14.5522  15.6825  18.0894

          k = 0.7500-0.0833 0.7500 (  1620 PWs)   bands (ev):

    -5.9422  -2.7495  -0.0387   1.2676   5.5095   7.7453   9.7099   9.7549
    12.0328  14.6241  15.0245  18.8674

          k = 0.6667 0.0000 0.6667 (  1612 PWs)   bands (ev):

    -6.0480  -2.6165  -0.1982   1.5036   5.6642   8.7370   9.2219   9.3914
    11.4490  13.7323  15.3971  19.1168

          k = 0.0000 0.8333 0.0000 (  1628 PWs)   bands (ev):

    -6.1578  -2.5374   0.9882   0.9882   4.9902   5.6371  10.5483  10.5483
    12.9006  14.9606  16.6692  17.7052

          k = 0.9167-0.0833 0.9167 (  1622 PWs)   bands (ev):

    -5.9194  -2.8439   0.7003   0.9547   5.2017   5.6883  10.6361  10.6793
    13.2535  14.5662  16.3423  17.8637

          k = 0.8333 0.0000 0.8333 (  1614 PWs)   bands (ev):

    -5.8349  -2.8982   0.2381   1.0514   5.3383   6.5642  10.3439  10.3902
    12.6529  14.7316  15.3931  18.5405

          k = 0.0000-1.0000 0.0000 (  1604 PWs)   bands (ev):

    -5.8385  -2.9758   0.8891   0.8891   5.1227   5.2838  10.9168  10.9168
    13.5756  14.5415  17.0693  17.2908

          k =-0.1667 0.3333 0.0000 (  1603 PWs)   bands (ev):

    -7.7639   0.4532   2.0346   2.6491   5.7399   6.0806   7.3912   7.8655
    12.2048  13.3764  14.0966  16.8798

          k =-0.2500 0.4167-0.0833 (  1607 PWs)   bands (ev):

    -7.4259  -0.5539   1.5601   2.4216   5.7335   6.5233   7.8249   8.4874
    12.2307  13.7881  14.2314  16.9042

          k =-0.3333 0.5000-0.1667 (  1604 PWs)   bands (ev):

    -7.0087  -1.5554   1.2737   2.1582   5.6027   7.0092   8.0404   9.1778
    12.7128  13.7591  14.6866  16.7364

          k = 0.5833-0.4167 0.7500 (  1612 PWs)   bands (ev):

    -6.6145  -2.3316   1.1233   1.9621   5.4987   7.2798   8.0860   9.9614
    13.1167  13.8093  15.0375  16.2292

          k = 0.5000-0.3333 0.6667 (  1602 PWs)   bands (ev):

    -6.4374  -2.6403   1.0773   1.8902   5.4609   7.3521   8.0902  10.3987
    12.8972  14.4106  14.9270  15.8761

          k =-0.1667 0.5000 0.0000 (  1617 PWs)   bands (ev):

    -7.3047  -0.6356   1.4448   1.9316   5.7373   6.3907   8.4538   8.5326
    11.8534  14.2103  14.8967  17.6609

          k =-0.2500 0.5833-0.0833 (  1611 PWs)   bands (ev):

    -6.9190  -1.4427   0.9861   1.7111   5.9581   6.6873   8.5522   8.9853
    12.4174  14.1622  15.2394  17.6733

          k = 0.6667-0.3333 0.8333 (  1617 PWs)   bands (ev):

    -6.5186  -2.1700   0.6523   1.5486   5.9581   7.2501   8.6601   9.2965
    12.8728  13.8923  15.5042  17.1898

          k = 0.5833-0.2500 0.7500 (  1607 PWs)   bands (ev):

    -6.2635  -2.5821   0.4347   1.5309   5.9553   7.5320   8.7916   9.7092
    12.2947  14.3522  15.1645  16.9347

          k = 0.5000-0.1667 0.6667 (  1605 PWs)   bands (ev):

    -6.3288  -2.4763   0.3574   1.6623   6.0031   7.5603   8.6988   9.7447
    12.2464  13.7481  15.3180  17.1446

          k = 0.4167-0.0833 0.5833 (  1610 PWs)   bands (ev):

    -6.6619  -1.9266   0.4711   1.9076   6.0771   7.3394   8.5337   9.1190
    12.7470  13.2472  15.1778  17.5234

          k = 0.3333 0.0000 0.5000 (  1606 PWs)   bands (ev):

    -7.0693  -1.2092   0.8549   2.2001   6.0725   6.8314   8.3634   8.5844
    12.3612  13.8161  14.6494  17.5303

          k =-0.1667 0.6667-0.0000 (  1626 PWs)   bands (ev):

    -6.7192  -1.6754   0.9994   1.3200   5.5061   6.4017   9.1100   9.6321
    12.3551  14.6167  15.7930  18.2950

          k = 0.7500-0.2500 0.9167 (  1621 PWs)   bands (ev):

    -6.3457  -2.2439   0.5504   1.1572   5.8142   6.7868   9.0118   9.9143
    12.8886  14.1145  15.9278  17.9842

          k = 0.6667-0.1667 0.8333 (  1616 PWs)   bands (ev):

    -6.0670  -2.6175   0.1416   1.1588   5.9217   7.6859   8.9362   9.8018
    12.3495  14.3412  15.4092  18.0593

          k = 0.5833-0.0833 0.7500 (  1614 PWs)   bands (ev):

    -6.0476  -2.6315  -0.0806   1.3144   6.0354   8.2594   9.1512   9.3593
    11.7332  13.9466  15.4141  18.3873

          k = 0.5000 0.0000 0.6667 (  1621 PWs)   bands (ev):

    -6.2979  -2.3243   0.0007   1.5857   6.1506   7.9911   8.8255   9.3269
    12.0914  13.2616  15.5128  18.3766

          k = 0.8333-0.1667 1.0000 (  1617 PWs)   bands (ev):

    -6.1241  -2.5476   0.7457   0.9066   5.4549   6.0032   9.9631  10.4623
    13.0430  14.4264  16.3091  17.9323

          k = 0.7500-0.0833 0.9167 (  1620 PWs)   bands (ev):

    -5.8952  -2.8020   0.3091   0.8726   5.7350   6.6270   9.8029  10.3231
    12.8263  14.2946  15.8176  18.1042

          k = 0.6667 0.0000 0.8333 (  1620 PWs)   bands (ev):

    -5.8681  -2.7971  -0.0610   1.0318   5.8763   7.7638   9.4834   9.7199
    12.1024  14.3308  15.3819  18.6394

          k =-0.1667-1.0000 0.0000 (  1622 PWs)   bands (ev):

    -5.8272  -2.9382   0.6902   0.7354   5.5575   5.7069  10.5314  10.6474
    13.2944  14.3016  16.2931  17.5606

          k = 0.6667-0.3333 1.0000 (  1610 PWs)   bands (ev):

    -6.5440  -1.9737   0.4562   1.4456   6.6338   6.6919   8.4345   9.5308
    12.7754  13.5799  15.6247  18.0945

          k = 0.5833-0.2500 0.9167 (  1611 PWs)   bands (ev):

    -6.1984  -2.4447   0.1592   1.1976   6.6452   7.3474   8.5644   9.7001
    12.3523  13.7248  15.6986  17.9753

          k = 0.5000-0.1667 0.8333 (  1610 PWs)   bands (ev):

    -6.0471  -2.6461   0.0688   1.1004   6.6339   7.5419   9.1484   9.3305
    11.9395  14.1898  15.4765  17.8057

          k = 0.6667-0.1667 1.0000 (  1618 PWs)   bands (ev):

    -6.0386  -2.5908   0.2880   0.8059   6.5685   6.8562   8.8090  10.1103
    12.7956  13.8220  15.9856  18.2303

          k = 0.5833-0.0833 0.9167 (  1615 PWs)   bands (ev):

    -5.8704  -2.7586   0.0579   0.6892   6.7881   7.7202   8.6930   9.4802
    12.4382  14.0618  15.7537  18.2194

          k = 0.5000 0.0000 0.8333 (  1612 PWs)   bands (ev):

    -5.9401  -2.6800  -0.0380   0.8615   6.8801   7.8976   8.6128   9.3421
    12.1847  13.9299  15.7041  18.4445

          k =-0.3333-1.0000 0.0000 (  1618 PWs)   bands (ev):

    -5.8041  -2.8566   0.3386   0.4684   6.6126   6.7428   9.5001   9.7764
    12.8774  14.0059  15.9775  17.9330

          k =-0.5000-1.0000 0.0000 (  1628 PWs)   bands (ev):

    -5.7924  -2.8122   0.1775   0.3497   7.6293   7.6614   8.4724   8.8826
    12.7369  13.9098  15.9175  18.0735

     the Fermi energy is     3.7234 ev

     Writing output data file Si.save

     init_run     :      0.39s CPU      0.41s WALL (       1 calls)
     electrons    :     43.40s CPU     44.22s WALL (       1 calls)

     Called by init_run:
     wfcinit      :      0.00s CPU      0.00s WALL (       1 calls)
     potinit      :      0.05s CPU      0.06s WALL (       1 calls)

     Called by electrons:
     c_bands      :     43.36s CPU     44.19s WALL (       1 calls)
     v_of_rho     :      0.05s CPU      0.05s WALL (       1 calls)

     Called by c_bands:
     init_us_2    :      0.11s CPU      0.11s WALL (      72 calls)
     cegterg      :     35.78s CPU     36.45s WALL (     107 calls)

     Called by *egterg:
     h_psi        :     35.50s CPU     36.17s WALL (    1734 calls)
     g_psi        :      0.09s CPU      0.09s WALL (    1555 calls)
     cdiaghg      :      0.94s CPU      0.96s WALL (    1627 calls)

     Called by h_psi:
     add_vuspsi   :      0.99s CPU      1.00s WALL (    1734 calls)

     General routines
     calbec       :      1.15s CPU      1.17s WALL (    1734 calls)
     fft          :      0.02s CPU      0.03s WALL (      11 calls)
     fftw         :     31.19s CPU     31.81s WALL (   26576 calls)
     davcio       :      0.01s CPU      0.01s WALL (      72 calls)

     Parallel routines
     fft_scatter  :      0.91s CPU      0.89s WALL (   26587 calls)

     PWSCF        :    45.72s CPU        46.63s WALL


   This run was terminated on:  12: 1:23  27Feb2023            

=------------------------------------------------------------------------------=
   JOB DONE.
=------------------------------------------------------------------------------=
