
     Program PWSCF v.5.1 starts on 27Feb2023 at 11:59:43 

     This program is part of the open-source Quantum ESPRESSO suite
     for quantum simulation of materials; please cite
         "P. Giannozzi et al., J. Phys.:Condens. Matter 21 395502 (2009);
          URL http://www.quantum-espresso.org", 
     in publications or presentations arising from this work. More details at
     http://www.quantum-espresso.org/quote

     Parallel version (MPI), running on     1 processors
     Waiting for input...
     Reading input from standard input
Warning: card    SI   -0.50    0.00    0.50 ignored
Warning: card    SI   -0.25    0.25    0.75 ignored

     Current dimensions of program PWSCF are:
     Max number of different atomic species (ntypx) = 10
     Max number of k-points (npk) =  40000
     Max angular momentum in pseudopotentials (lmaxx) =  3
               file Si.pbe-mt_fhi.UPF: wavefunction(s)  4f renormalized
               file B.pbe-mt_fhi.UPF: wavefunction(s)  4f renormalized
               file P.pbe-mt_fhi.UPF: wavefunction(s)  4f renormalized

     Subspace diagonalization in iterative solution of the eigenvalue problem:
     a serial algorithm will be used


     G-vector sticks info
     --------------------
     sticks:   dense  smooth     PW     G-vecs:    dense   smooth      PW
     Sum         733     733    211                12939    12939    2109



     bravais-lattice index     =            2
     lattice parameter (alat)  =      10.2623  a.u.
     unit-cell volume          =     270.1967 (a.u.)^3
     number of atoms/cell      =            2
     number of atomic types    =            3
     number of electrons       =         8.00
     number of Kohn-Sham states=           12
     kinetic-energy cutoff     =      50.0000  Ry
     charge density cutoff     =     200.0000  Ry
     convergence threshold     =      1.6E-09
     mixing beta               =       0.3000
     number of iterations used =            8  plain     mixing
     Exchange-correlation      = PBE ( 1  4  3  4 0)

     celldm(1)=  10.262347  celldm(2)=   0.000000  celldm(3)=   0.000000
     celldm(4)=   0.000000  celldm(5)=   0.000000  celldm(6)=   0.000000

     crystal axes: (cart. coord. in units of alat)
               a(1) = (  -0.500000   0.000000   0.500000 )  
               a(2) = (   0.000000   0.500000   0.500000 )  
               a(3) = (  -0.500000   0.500000   0.000000 )  

     reciprocal axes: (cart. coord. in units 2 pi/alat)
               b(1) = ( -1.000000 -1.000000  1.000000 )  
               b(2) = (  1.000000  1.000000  1.000000 )  
               b(3) = ( -1.000000  1.000000 -1.000000 )  


     PseudoPot. # 1 for Si read from file:
     /home/acedemo/psudo/Si.pbe-mt_fhi.UPF
     MD5 check sum: 259057c2adf9952f9ced37ae3d9e311d
     Pseudo is Norm-conserving, Zval =  4.0
     Generated using FHI98PP, converted with fhi2upf.x v.5.0.2
     Using radial grid of  495 points,  3 beta functions with: 
                l(1) =   0
                l(2) =   1
                l(3) =   3

     PseudoPot. # 2 for  B read from file:
     /home/acedemo/psudo/B.pbe-mt_fhi.UPF
     MD5 check sum: 3ba04917d1d3a8de85490f79a9c37fe5
     Pseudo is Norm-conserving + core correction, Zval =  3.0
     Generated using FHI98PP, converted with fhi2upf.x v.5.0.2
     Using radial grid of  453 points,  3 beta functions with: 
                l(1) =   0
                l(2) =   1
                l(3) =   3

     PseudoPot. # 3 for  P read from file:
     /home/acedemo/psudo/P.pbe-mt_fhi.UPF
     MD5 check sum: 7191c457fb61afa58d0f00d0e4a443c1
     Pseudo is Norm-conserving, Zval =  5.0
     Generated using FHI98PP, converted with fhi2upf.x v.5.0.2
     Using radial grid of  499 points,  3 beta functions with: 
                l(1) =   0
                l(2) =   1
                l(3) =   3

     atomic species   valence    mass     pseudopotential
        Si             4.00    28.08550     Si( 1.00)
        B              3.00    10.81100      B( 1.00)
        P              5.00    30.97376      P( 1.00)

     24 Sym. Ops. (no inversion) found



   Cartesian axes

     site n.     atom                  positions (alat units)
         1           B   tau(   1) = (   0.0000000   0.0000000   0.0000000  )
         2           P   tau(   2) = (   0.2500000   0.2500000   0.2500000  )

     number of k points=    10  Marzari-Vanderbilt smearing, width (Ry)=  0.0500
                       cart. coord. in units 2pi/alat
        k(    1) = (   0.0000000   0.0000000   0.0000000), wk =   0.0160000
        k(    2) = (  -0.2000000   0.2000000  -0.2000000), wk =   0.1280000
        k(    3) = (  -0.4000000   0.4000000  -0.4000000), wk =   0.1280000
        k(    4) = (   0.0000000   0.4000000   0.0000000), wk =   0.0960000
        k(    5) = (  -0.2000000   0.6000000  -0.2000000), wk =   0.3840000
        k(    6) = (   0.6000000  -0.2000000   0.6000000), wk =   0.3840000
        k(    7) = (   0.4000000   0.0000000   0.4000000), wk =   0.1920000
        k(    8) = (   0.0000000   0.8000000   0.0000000), wk =   0.0960000
        k(    9) = (   0.8000000   0.0000000   0.8000000), wk =   0.1920000
        k(   10) = (   0.6000000  -0.2000000   1.0000000), wk =   0.3840000

     Dense  grid:    12939 G-vectors     FFT dimensions: (  36,  36,  36)

     Largest allocated arrays     est. size (Mb)     dimensions
        Kohn-Sham Wavefunctions         0.30 Mb     (    1639,   12)
        NL pseudopotentials             0.55 Mb     (    1639,   22)
        Each V/rho on FFT grid          0.71 Mb     (   46656)
        Each G-vector array             0.10 Mb     (   12939)
        G-vector shells                 0.00 Mb     (     180)
     Largest temporary arrays     est. size (Mb)     dimensions
        Auxiliary wavefunctions         1.20 Mb     (    1639,   48)
        Each subspace H/S matrix        0.04 Mb     (      48,   48)
        Each <psi_i|beta_j> matrix      0.00 Mb     (      22,   12)
        Arrays for rho mixing           5.70 Mb     (   46656,    8)

     Check: negative/imaginary core charge=   -0.000048    0.000000

     Initial potential from superposition of free atoms

     starting charge    7.99962, renormalised to    8.00000
     Starting wfc are   32 randomized atomic wfcs

     total cpu time spent up to now is        1.7 secs

     per-process dynamical memory:    18.5 Mb

     Self-consistent Calculation

     iteration #  1     ecut=    50.00 Ry     beta=0.30
     Davidson diagonalization with overlap
     ethr =  1.00E-02,  avg # of iterations =  4.2

     Threshold (ethr) on eigenvalues was too large:
     Diagonalizing with lowered threshold

     Davidson diagonalization with overlap
     ethr =  4.26E-04,  avg # of iterations =  1.1

     total cpu time spent up to now is        4.9 secs

     total energy              =     -19.84022631 Ry
     Harris-Foulkes estimate   =     -19.84450362 Ry
     estimated scf accuracy    <       0.03371719 Ry

     iteration #  2     ecut=    50.00 Ry     beta=0.30
     Davidson diagonalization with overlap
     ethr =  4.21E-04,  avg # of iterations =  1.0

     total cpu time spent up to now is        6.0 secs

     total energy              =     -19.84104375 Ry
     Harris-Foulkes estimate   =     -19.84159570 Ry
     estimated scf accuracy    <       0.01155951 Ry

     iteration #  3     ecut=    50.00 Ry     beta=0.30
     Davidson diagonalization with overlap
     ethr =  1.44E-04,  avg # of iterations =  1.0

     total cpu time spent up to now is        7.1 secs

     total energy              =     -19.84105015 Ry
     Harris-Foulkes estimate   =     -19.84114740 Ry
     estimated scf accuracy    <       0.00278140 Ry

     iteration #  4     ecut=    50.00 Ry     beta=0.30
     Davidson diagonalization with overlap
     ethr =  3.48E-05,  avg # of iterations =  1.5

     total cpu time spent up to now is        8.0 secs

     total energy              =     -19.84110784 Ry
     Harris-Foulkes estimate   =     -19.84110852 Ry
     estimated scf accuracy    <       0.00002404 Ry

     iteration #  5     ecut=    50.00 Ry     beta=0.30
     Davidson diagonalization with overlap
     ethr =  3.00E-07,  avg # of iterations =  2.2

     total cpu time spent up to now is        9.0 secs

     total energy              =     -19.84111085 Ry
     Harris-Foulkes estimate   =     -19.84111057 Ry
     estimated scf accuracy    <       0.00000051 Ry

     iteration #  6     ecut=    50.00 Ry     beta=0.30
     Davidson diagonalization with overlap
     ethr =  6.33E-09,  avg # of iterations =  2.2

     total cpu time spent up to now is       10.2 secs

     total energy              =     -19.84111114 Ry
     Harris-Foulkes estimate   =     -19.84111102 Ry
     estimated scf accuracy    <       0.00000009 Ry

     iteration #  7     ecut=    50.00 Ry     beta=0.30
     Davidson diagonalization with overlap
     ethr =  1.16E-09,  avg # of iterations =  2.0

     total cpu time spent up to now is       11.3 secs

     total energy              =     -19.84111116 Ry
     Harris-Foulkes estimate   =     -19.84111116 Ry
     estimated scf accuracy    <          1.8E-09 Ry

     iteration #  8     ecut=    50.00 Ry     beta=0.30
     Davidson diagonalization with overlap
     ethr =  2.29E-11,  avg # of iterations =  1.2

     total cpu time spent up to now is       12.3 secs

     End of self-consistent calculation

          k = 0.0000 0.0000 0.0000 (  1639 PWs)   bands (ev):

    -8.2494   3.2708   3.2708   3.2708   4.0721   6.1484   6.1484   6.1484
    12.0006  14.0553  14.0553  16.4888

          k =-0.2000 0.2000-0.2000 (  1606 PWs)   bands (ev):

    -7.8317   0.3862   2.7865   2.7865   4.8239   6.8341   6.8341   7.8158
    13.0778  13.2402  13.2402  15.7736

          k =-0.4000 0.4000-0.4000 (  1616 PWs)   bands (ev):

    -6.8508  -2.2401   2.2689   2.2689   4.4477   7.3922   7.3922  10.4252
    13.5597  14.1956  14.1956  15.4569

          k = 0.0000 0.4000 0.0000 (  1607 PWs)   bands (ev):

    -7.6878   0.4036   2.0951   2.0951   5.4697   6.3007   7.9196   7.9196
    11.6730  13.6658  14.7477  17.6698

          k =-0.2000 0.6000-0.2000 (  1619 PWs)   bands (ev):

    -6.8448  -1.6576   1.1295   1.6250   5.6727   6.9474   8.7224   8.8923
    12.6460  14.2263  15.3478  17.9839

          k = 0.6000-0.2000 0.6000 (  1596 PWs)   bands (ev):

    -6.3363  -2.5566   0.4652   1.8209   5.6687   7.8463   8.3721  10.0340
    12.3123  13.8395  15.0993  16.9529

          k = 0.4000 0.0000 0.4000 (  1610 PWs)   bands (ev):

    -7.1945  -1.0163   0.9430   2.5156   5.7399   7.3527   7.6743   8.6516
    12.3812  13.7159  14.2522  17.3413

          k = 0.0000 0.8000 0.0000 (  1624 PWs)   bands (ev):

    -6.2732  -2.3696   1.0315   1.0315   4.9797   5.7400  10.4008  10.4008
    12.7061  15.0349  16.5236  17.8639

          k = 0.8000 0.0000 0.8000 (  1622 PWs)   bands (ev):

    -5.8466  -2.8642   0.0789   1.1210   5.3960   7.0288  10.1509  10.1858
    12.3257  14.8812  15.0330  18.7589

          k = 0.6000-0.2000 1.0000 (  1616 PWs)   bands (ev):

    -6.0768  -2.5379   0.1312   0.9324   7.0378   7.1104   8.4156   9.8717
    12.4849  13.7304  15.8548  18.3612

     the Fermi energy is     3.2344 ev

!    total energy              =     -19.84111116 Ry
     Harris-Foulkes estimate   =     -19.84111116 Ry
     estimated scf accuracy    <          3.7E-10 Ry

     The total energy is the sum of the following terms:

     one-electron contribution =       2.02432552 Ry
     hartree contribution      =       1.87828621 Ry
     xc contribution           =      -6.21608019 Ry
     ewald contribution        =     -17.53433161 Ry
     smearing contrib. (-TS)   =       0.00668891 Ry

     convergence has been achieved in   8 iterations

     Forces acting on atoms (Ry/au):

     atom    1 type  2   force =     0.00000000   -0.00000000    0.00000000
     atom    2 type  3   force =     0.00000000    0.00000000    0.00000000

     Total force =     0.000000     Total SCF correction =     0.000000


     entering subroutine stress ...

          total   stress  (Ry/bohr**3)                   (kbar)     P= -288.57
  -0.00196164   0.00000000  -0.00000000       -288.57      0.00     -0.00
  -0.00000000  -0.00196164  -0.00000000         -0.00   -288.57     -0.00
   0.00000000  -0.00000000  -0.00196164          0.00     -0.00   -288.57


     Writing output data file Si.save

     init_run     :      1.50s CPU      1.55s WALL (       1 calls)
     electrons    :     10.32s CPU     10.65s WALL (       1 calls)
     forces       :      0.15s CPU      0.15s WALL (       1 calls)
     stress       :      0.75s CPU      0.75s WALL (       1 calls)

     Called by init_run:
     wfcinit      :      1.10s CPU      1.12s WALL (       1 calls)
     potinit      :      0.06s CPU      0.06s WALL (       1 calls)

     Called by electrons:
     c_bands      :      8.18s CPU      8.45s WALL (       9 calls)
     sum_band     :      1.67s CPU      1.73s WALL (       9 calls)
     v_of_rho     :      0.47s CPU      0.47s WALL (       9 calls)
     mix_rho      :      0.03s CPU      0.03s WALL (       9 calls)

     Called by c_bands:
     init_us_2    :      0.35s CPU      0.36s WALL (     210 calls)
     cegterg      :      7.91s CPU      8.15s WALL (      90 calls)

     Called by *egterg:
     h_psi        :      8.00s CPU      8.24s WALL (     264 calls)
     g_psi        :      0.01s CPU      0.01s WALL (     164 calls)
     cdiaghg      :      0.09s CPU      0.09s WALL (     244 calls)

     Called by h_psi:
     add_vuspsi   :      0.23s CPU      0.24s WALL (     264 calls)

     General routines
     calbec       :      0.29s CPU      0.31s WALL (     284 calls)
     fft          :      0.22s CPU      0.23s WALL (     125 calls)
     fftw         :      8.30s CPU      8.55s WALL (    6394 calls)
     davcio       :      0.00s CPU      0.00s WALL (      10 calls)

     Parallel routines
     fft_scatter  :      0.26s CPU      0.27s WALL (    6519 calls)

     PWSCF        :    12.90s CPU        13.31s WALL


   This run was terminated on:  11:59:56  27Feb2023            

=------------------------------------------------------------------------------=
   JOB DONE.
=------------------------------------------------------------------------------=
