
     Program PWSCF v.5.1 starts on 13Feb2023 at 17:15: 5 

     This program is part of the open-source Quantum ESPRESSO suite
     for quantum simulation of materials; please cite
         "P. Giannozzi et al., J. Phys.:Condens. Matter 21 395502 (2009);
          URL http://www.quantum-espresso.org", 
     in publications or presentations arising from this work. More details at
     http://www.quantum-espresso.org/quote

     Parallel version (MPI), running on     1 processors
     Waiting for input...
     Reading input from standard input

     Current dimensions of program PWSCF are:
     Max number of different atomic species (ntypx) = 10
     Max number of k-points (npk) =  40000
     Max angular momentum in pseudopotentials (lmaxx) =  3

     Atomic positions and unit cell read from directory:
     ./out/Si.save/

               file Si.pbe-mt_fhi.UPF: wavefunction(s)  4f renormalized

     Subspace diagonalization in iterative solution of the eigenvalue problem:
     a serial algorithm will be used


     G-vector sticks info
     --------------------
     sticks:   dense  smooth     PW     G-vecs:    dense   smooth      PW
     Sum         733     733    211                12939    12939    2109



     bravais-lattice index     =            2
     lattice parameter (alat)  =      10.2623  a.u.
     unit-cell volume          =     270.1967 (a.u.)^3
     number of atoms/cell      =            2
     number of atomic types    =            1
     number of electrons       =         9.00
     number of Kohn-Sham states=           10
     kinetic-energy cutoff     =      50.0000  Ry
     charge density cutoff     =     200.0000  Ry
     Exchange-correlation      = PBE ( 1  4  3  4 0)

     celldm(1)=  10.262347  celldm(2)=   0.000000  celldm(3)=   0.000000
     celldm(4)=   0.000000  celldm(5)=   0.000000  celldm(6)=   0.000000

     crystal axes: (cart. coord. in units of alat)
               a(1) = (  -0.500000   0.000000   0.500000 )  
               a(2) = (   0.000000   0.500000   0.500000 )  
               a(3) = (  -0.500000   0.500000   0.000000 )  

     reciprocal axes: (cart. coord. in units 2 pi/alat)
               b(1) = ( -1.000000 -1.000000  1.000000 )  
               b(2) = (  1.000000  1.000000  1.000000 )  
               b(3) = ( -1.000000  1.000000 -1.000000 )  


     PseudoPot. # 1 for Si read from file:
     /home/acedemo/psudo/Si.pbe-mt_fhi.UPF
     MD5 check sum: 259057c2adf9952f9ced37ae3d9e311d
     Pseudo is Norm-conserving, Zval =  4.0
     Generated using FHI98PP, converted with fhi2upf.x v.5.0.2
     Using radial grid of  495 points,  3 beta functions with: 
                l(1) =   0
                l(2) =   1
                l(3) =   3

     atomic species   valence    mass     pseudopotential
        Si             4.00    28.08550     Si( 1.00)

     48 Sym. Ops., with inversion, found (24 have fractional translation)



   Cartesian axes

     site n.     atom                  positions (alat units)
         1           Si  tau(   1) = (   0.0000000   0.0000000   0.0000000  )
         2           Si  tau(   2) = (   0.2500000   0.2500000   0.2500000  )

     number of k points=    51  Marzari-Vanderbilt smearing, width (Ry)=  0.0500
                       cart. coord. in units 2pi/alat
        k(    1) = (   0.5000000   0.5000000   0.5000000), wk =   0.0000000
        k(    2) = (   0.4500000   0.4500000   0.4500000), wk =   0.0014779
        k(    3) = (   0.4000000   0.4000000   0.4000000), wk =   0.0029558
        k(    4) = (   0.3500000   0.3500000   0.3500000), wk =   0.0044337
        k(    5) = (   0.3000000   0.3000000   0.3000000), wk =   0.0059116
        k(    6) = (   0.2500000   0.2500000   0.2500000), wk =   0.0073895
        k(    7) = (   0.2000000   0.2000000   0.2000000), wk =   0.0088674
        k(    8) = (   0.1500000   0.1500000   0.1500000), wk =   0.0103453
        k(    9) = (   0.1000000   0.1000000   0.1000000), wk =   0.0118232
        k(   10) = (   0.0500000   0.0500000   0.0500000), wk =   0.0133011
        k(   11) = (   0.0000000   0.0000000   0.0000000), wk =   0.0147790
        k(   12) = (   0.0000000   0.1000000   0.0000000), wk =   0.0168691
        k(   13) = (   0.0000000   0.2000000   0.0000000), wk =   0.0189591
        k(   14) = (   0.0000000   0.3000000   0.0000000), wk =   0.0210492
        k(   15) = (   0.0000000   0.4000000   0.0000000), wk =   0.0231392
        k(   16) = (   0.0000000   0.5000000   0.0000000), wk =   0.0252293
        k(   17) = (   0.0000000   0.6000000   0.0000000), wk =   0.0273194
        k(   18) = (   0.0000000   0.7000000   0.0000000), wk =   0.0294094
        k(   19) = (   0.0000000   0.8000000   0.0000000), wk =   0.0314995
        k(   20) = (   0.0000000   0.9000000   0.0000000), wk =   0.0335896
        k(   21) = (   0.0000000   1.0000000   0.0000000), wk =   0.0356796
        k(   22) = (   0.0000000   0.9750000   0.0750000), wk =   0.0370621
        k(   23) = (   0.0000000   0.9500000   0.1500000), wk =   0.0384445
        k(   24) = (  -0.0000000   0.9250000   0.2250000), wk =   0.0398270
        k(   25) = (  -0.0000000   0.9000000   0.3000000), wk =   0.0412094
        k(   26) = (   0.0000000   0.8750000   0.3750000), wk =   0.0425919
        k(   27) = (   0.0000000   0.8500000   0.4500000), wk =   0.0439743
        k(   28) = (   0.0000000   0.8250000   0.5250000), wk =   0.0453568
        k(   29) = (  -0.0000000   0.8000000   0.6000000), wk =   0.0467392
        k(   30) = (  -0.0000000   0.7750000   0.6750000), wk =   0.0481217
        k(   31) = (   0.0000000   0.7500000   0.7500000), wk =   0.0495041
        k(   32) = (   0.0000000   0.7250000   0.7750000), wk =   0.0500266
        k(   33) = (   0.0000000   0.7000000   0.8000000), wk =   0.0505491
        k(   34) = (   0.0000000   0.6750000   0.8250000), wk =   0.0510717
        k(   35) = (   0.0000000   0.6500000   0.8500000), wk =   0.0515942
        k(   36) = (   0.0000000   0.6250000   0.8750000), wk =   0.0521167
        k(   37) = (   0.0000000   0.6000000   0.9000000), wk =   0.0526392
        k(   38) = (   0.0000000   0.5750000   0.9250000), wk =   0.0531617
        k(   39) = (   0.0000000   0.5500000   0.9500000), wk =   0.0536842
        k(   40) = (   0.0000000   0.5250000   0.9750000), wk =   0.0542067
        k(   41) = (   0.0000000   0.5000000   1.0000000), wk =   0.0547293
        k(   42) = (   0.0000000   0.4500000   0.9000000), wk =   0.0574942
        k(   43) = (  -0.0000000   0.4000000   0.8000000), wk =   0.0602591
        k(   44) = (  -0.0000000   0.3500000   0.7000000), wk =   0.0630239
        k(   45) = (  -0.0000000   0.3000000   0.6000000), wk =   0.0657888
        k(   46) = (   0.0000000   0.2500000   0.5000000), wk =   0.0685537
        k(   47) = (   0.0000000   0.2000000   0.4000000), wk =   0.0713186
        k(   48) = (   0.0000000   0.1500000   0.3000000), wk =   0.0740835
        k(   49) = (  -0.0000000   0.1000000   0.2000000), wk =   0.0768484
        k(   50) = (  -0.0000000   0.0500000   0.1000000), wk =   0.0796133
        k(   51) = (   0.0000000   0.0000000   0.0000000), wk =   0.0823782

     Dense  grid:    12939 G-vectors     FFT dimensions: (  36,  36,  36)

     Largest allocated arrays     est. size (Mb)     dimensions
        Kohn-Sham Wavefunctions         0.25 Mb     (    1639,   10)
        NL pseudopotentials             0.55 Mb     (    1639,   22)
        Each V/rho on FFT grid          0.71 Mb     (   46656)
        Each G-vector array             0.10 Mb     (   12939)
        G-vector shells                 0.00 Mb     (     180)
     Largest temporary arrays     est. size (Mb)     dimensions
        Auxiliary wavefunctions         1.00 Mb     (    1639,   40)
        Each subspace H/S matrix        0.02 Mb     (      40,   40)
        Each <psi_i|beta_j> matrix      0.00 Mb     (      22,   10)

     The potential is recalculated from file :
     ./out/Si.save/charge-density.dat

     Starting wfc are   32 randomized atomic wfcs

     Band Structure Calculation
     Davidson diagonalization with overlap

     ethr =  1.78E-11,  avg # of iterations = 18.2

     total cpu time spent up to now is       32.8 secs

     End of band structure calculation

          k = 0.5000 0.5000 0.5000 (  1622 PWs)   bands (ev):

    -3.7273  -1.1470   4.7344   4.7344   7.3148   9.1471   9.1471  13.1748
    16.4207  16.4207

          k = 0.4500 0.4500 0.4500 (  1610 PWs)   bands (ev):

    -3.8680  -0.9438   4.7523   4.7523   7.3355   9.1695   9.1695  13.2109
    15.7110  15.7110

          k = 0.4000 0.4000 0.4000 (  1616 PWs)   bands (ev):

    -4.1971  -0.4280   4.8058   4.8058   7.3975   9.2308   9.2308  13.3101
    14.8229  14.8229

          k = 0.3500 0.3500 0.3500 (  1610 PWs)   bands (ev):

    -4.5841   0.2681   4.8949   4.8949   7.4998   9.3109   9.3109  13.4230
    14.0383  14.0383

          k = 0.3000 0.3000 0.3000 (  1615 PWs)   bands (ev):

    -4.9616   1.0737   5.0184   5.0184   7.6405   9.3718   9.3718  13.3035
    13.4133  13.4133

          k = 0.2500 0.2500 0.2500 (  1618 PWs)   bands (ev):

    -5.3003   1.9534   5.1741   5.1741   7.8151   9.3584   9.3584  12.6654
    13.0063  13.0063

          k = 0.2000 0.2000 0.2000 (  1606 PWs)   bands (ev):

    -5.5867   2.8837   5.3562   5.3562   8.0148   9.2261   9.2261  11.8320
    12.8607  12.8607

          k = 0.1500 0.1500 0.1500 (  1600 PWs)   bands (ev):

    -5.8139   3.8388   5.5537   5.5537   8.2219   8.9886   8.9886  10.9586
    12.9572  12.9572

          k = 0.1000 0.1000 0.1000 (  1606 PWs)   bands (ev):

    -5.9782   4.7744   5.7449   5.7449   8.4001   8.7175   8.7175  10.1064
    13.2086  13.2086

          k = 0.0500 0.0500 0.0500 (  1630 PWs)   bands (ev):

    -6.0774   5.5802   5.8930   5.8930   8.4708   8.5013   8.5013   9.4185
    13.4488  13.4826

          k = 0.0000 0.0000 0.0000 (  1639 PWs)   bands (ev):

    -6.1106   5.9506   5.9506   5.9506   8.4179   8.4179   8.4179   9.1708
    13.2936  13.6080

          k = 0.0000 0.1000 0.0000 (  1627 PWs)   bands (ev):

    -6.0664   5.6655   5.7658   5.7658   8.2981   8.6560   8.6560   9.4455
    13.2428  13.4993

          k = 0.0000 0.2000 0.0000 (  1599 PWs)   bands (ev):

    -5.9337   5.0017   5.3501   5.3501   7.9932   9.2304   9.2304  10.0019
    12.5343  13.8019

          k = 0.0000 0.3000 0.0000 (  1607 PWs)   bands (ev):

    -5.7135   4.1871   4.8751   4.8751   7.6049   9.9664   9.9664  10.1917
    12.2605  14.0441

          k = 0.0000 0.4000 0.0000 (  1607 PWs)   bands (ev):

    -5.4069   3.3154   4.4177   4.4177   7.2112   9.6166  10.7830  10.7830
    12.8725  14.3829

          k = 0.0000 0.5000 0.0000 (  1612 PWs)   bands (ev):

    -5.0157   2.4207   4.0093   4.0093   6.8583   8.8297  11.6454  11.6454
    13.8334  14.8180

          k = 0.0000 0.6000 0.0000 (  1620 PWs)   bands (ev):

    -4.5426   1.5190   3.6645   3.6645   6.5732   8.0931  12.5374  12.5374
    14.8773  15.3489

          k = 0.0000 0.7000 0.0000 (  1632 PWs)   bands (ev):

    -3.9908   0.6224   3.3909   3.3909   6.3725   7.4699  13.4516  13.4516
    15.9239  15.9752

          k = 0.0000 0.8000 0.0000 (  1624 PWs)   bands (ev):

    -3.3648  -0.2570   3.1931   3.1931   6.2676   6.9768  14.3833  14.3833
    16.6960  16.9323

          k = 0.0000 0.9000 0.0000 (  1608 PWs)   bands (ev):

    -2.6704  -1.1067   3.0734   3.0734   6.2679   6.6154  15.3136  15.3136
    17.5089  17.5089

          k = 0.0000 1.0000 0.0000 (  1604 PWs)   bands (ev):

    -1.9147  -1.9147   3.0334   3.0334   6.3814   6.3814  15.9678  15.9678
    16.8393  16.8393

          k = 0.0000 0.9750 0.0750 (  1618 PWs)   bands (ev):

    -2.0985  -1.7100   2.9518   2.9589   6.4865   6.5687  15.5502  15.7775
    16.5383  16.7801

          k = 0.0000 0.9500 0.1500 (  1622 PWs)   bands (ev):

    -2.2540  -1.4967   2.7371   2.7868   6.8538   7.0008  14.5070  15.3284
    16.0547  16.9301

          k =-0.0000 0.9250 0.2250 (  1622 PWs)   bands (ev):

    -2.3769  -1.2938   2.4578   2.6056   7.4094   7.6045  13.3252  14.6643
    15.7007  17.0870

          k =-0.0000 0.9000 0.3000 (  1623 PWs)   bands (ev):

    -2.4654  -1.1262   2.1706   2.4879   8.0919   8.3243  12.1416  13.9222
    15.4150  17.0606

          k = 0.0000 0.8750 0.3750 (  1614 PWs)   bands (ev):

    -2.5193  -1.0194   1.9100   2.4825   8.8613   9.1119  11.0141  13.1802
    15.1411  16.7997

          k = 0.0000 0.8500 0.4500 (  1612 PWs)   bands (ev):

    -2.5393  -0.9871   1.6959   2.6085   9.5877   9.6870  10.3279  12.4727
    14.8587  16.3809

          k = 0.0000 0.8250 0.5250 (  1611 PWs)   bands (ev):

    -2.5271  -1.0219   1.5405   2.8487   8.7636  10.5123  11.0851  11.8518
    14.5612  15.8682

          k =-0.0000 0.8000 0.6000 (  1614 PWs)   bands (ev):

    -2.4845  -1.1028   1.4513   3.1484   7.8917  10.8567  11.7892  12.0663
    14.2509  15.3103

          k =-0.0000 0.7750 0.6750 (  1621 PWs)   bands (ev):

    -2.4132  -1.2080   1.4329   3.4070   7.2157  10.3996  12.5871  13.0982
    13.9436  14.7467

          k = 0.0000 0.7500 0.7500 (  1624 PWs)   bands (ev):

    -2.3145  -1.3234   1.4875   3.4698   6.8913   9.8800  13.3327  13.8103
    14.0244  14.3303

          k = 0.0000 0.7250 0.7750 (  1616 PWs)   bands (ev):

    -2.3087  -1.3254   1.4923   3.4297   6.9488   9.8839  13.1722  13.7468
    13.9701  14.6095

          k = 0.0000 0.7000 0.8000 (  1621 PWs)   bands (ev):

    -2.2912  -1.3317   1.5066   3.3178   7.1131   9.8952  12.8893  13.3619
    14.2506  14.9980

          k = 0.0000 0.6750 0.8250 (  1620 PWs)   bands (ev):

    -2.2621  -1.3432   1.5305   3.1539   7.3652   9.9138  12.5870  12.9740
    14.5493  15.3886

          k = 0.0000 0.6500 0.8500 (  1616 PWs)   bands (ev):

    -2.2214  -1.3612   1.5638   2.9599   7.6840   9.9389  12.2829  12.5915
    14.8486  15.7667

          k = 0.0000 0.6250 0.8750 (  1616 PWs)   bands (ev):

    -2.1690  -1.3879   1.6064   2.7544   8.0521   9.9693  11.9835  12.2172
    15.1430  16.1174

          k = 0.0000 0.6000 0.9000 (  1613 PWs)   bands (ev):

    -2.1052  -1.4254   1.6581   2.5520   8.4562  10.0028  11.6934  11.8539
    15.4294  16.4165

          k = 0.0000 0.5750 0.9250 (  1615 PWs)   bands (ev):

    -2.0298  -1.4765   1.7188   2.3634   8.8847  10.0353  11.4182  11.5052
    15.7053  16.6237

          k = 0.0000 0.5500 0.9500 (  1615 PWs)   bands (ev):

    -1.9429  -1.5438   1.7883   2.1969   9.3241  10.0586  11.1676  11.1798
    15.9681  16.6930

          k = 0.0000 0.5250 0.9750 (  1615 PWs)   bands (ev):

    -1.8446  -1.6295   1.8661   2.0584   9.7414  10.0562  10.9070  10.9587
    16.2144  16.6168

          k = 0.0000 0.5000 1.0000 (  1628 PWs)   bands (ev):

    -1.7349  -1.7349   1.9519   1.9519  10.0022  10.0022  10.8184  10.8184
    16.4390  16.4390

          k = 0.0000 0.4500 0.9000 (  1616 PWs)   bands (ev):

    -2.2710  -1.2309   1.7488   2.3586   9.6736   9.6938  10.4823  12.0083
    15.4130  16.7659

          k =-0.0000 0.4000 0.8000 (  1616 PWs)   bands (ev):

    -2.9098  -0.6417   1.8265   2.8473   9.1640   9.4875  10.2489  13.5821
    14.3183  16.0232

          k =-0.0000 0.3500 0.7000 (  1618 PWs)   bands (ev):

    -3.5727   0.0321   2.1182   3.3901   8.7438   9.4135  10.0956  13.2617
    15.1049  15.1910

          k =-0.0000 0.3000 0.6000 (  1609 PWs)   bands (ev):

    -4.2020   0.7898   2.5680   3.9494   8.4313   9.5011   9.9881  12.2761
    14.2716  16.4803

          k = 0.0000 0.2500 0.5000 (  1610 PWs)   bands (ev):

    -4.7638   1.6293   3.1358   4.4829   8.2301   9.6949   9.9527  11.3642
    13.5910  16.0747

          k = 0.0000 0.2000 0.4000 (  1613 PWs)   bands (ev):

    -5.2390   2.5454   3.7872   4.9559   8.1390   9.5820  10.3327  10.5307
    13.0421  14.6646

          k = 0.0000 0.1500 0.3000 (  1607 PWs)   bands (ev):

    -5.6166   3.5258   4.4822   5.3512   8.1506   9.3005   9.7810  10.7775
    12.4877  13.8184

          k =-0.0000 0.1000 0.2000 (  1600 PWs)   bands (ev):

    -5.8900   4.5379   5.1609   5.6624   8.2425   8.9695   9.1295  10.4157
    12.5635  13.5945

          k =-0.0000 0.0500 0.1000 (  1623 PWs)   bands (ev):

    -6.0553   5.4765   5.7159   5.8734   8.3609   8.6273   8.6414   9.5512
    13.2337  13.5488

          k = 0.0000 0.0000 0.0000 (  1639 PWs)   bands (ev):

    -6.1106   5.9506   5.9506   5.9506   8.4179   8.4179   8.4179   9.1708
    13.2936  13.6080

     Writing output data file Si.save

     init_run     :      0.20s CPU      0.26s WALL (       1 calls)
     electrons    :     28.79s CPU     30.97s WALL (       1 calls)

     Called by init_run:
     wfcinit      :      0.00s CPU      0.00s WALL (       1 calls)
     potinit      :      0.05s CPU      0.07s WALL (       1 calls)

     Called by electrons:
     c_bands      :     28.79s CPU     30.96s WALL (       1 calls)
     v_of_rho     :      0.04s CPU      0.06s WALL (       1 calls)

     Called by c_bands:
     init_us_2    :      0.10s CPU      0.10s WALL (      51 calls)
     cegterg      :     22.25s CPU     23.97s WALL (      62 calls)

     Called by *egterg:
     h_psi        :     24.06s CPU     25.87s WALL (    1042 calls)
     g_psi        :      0.06s CPU      0.06s WALL (     929 calls)
     cdiaghg      :      0.48s CPU      0.51s WALL (     980 calls)

     Called by h_psi:
     add_vuspsi   :      0.68s CPU      0.72s WALL (    1042 calls)

     General routines
     calbec       :      0.77s CPU      0.82s WALL (    1042 calls)
     fft          :      0.02s CPU      0.04s WALL (      10 calls)
     fftw         :     21.32s CPU     22.97s WALL (   15132 calls)
     davcio       :      0.00s CPU      0.00s WALL (      51 calls)

     Parallel routines
     fft_scatter  :      0.51s CPU      0.55s WALL (   15142 calls)

     PWSCF        :    30.45s CPU        32.98s WALL


   This run was terminated on:  17:15:38  13Feb2023            

=------------------------------------------------------------------------------=
   JOB DONE.
=------------------------------------------------------------------------------=
