
     Program PWSCF v.5.1 starts on 13Feb2023 at 17:14:21 

     This program is part of the open-source Quantum ESPRESSO suite
     for quantum simulation of materials; please cite
         "P. Giannozzi et al., J. Phys.:Condens. Matter 21 395502 (2009);
          URL http://www.quantum-espresso.org", 
     in publications or presentations arising from this work. More details at
     http://www.quantum-espresso.org/quote

     Parallel version (MPI), running on     1 processors
     Waiting for input...
     Reading input from standard input

     Current dimensions of program PWSCF are:
     Max number of different atomic species (ntypx) = 10
     Max number of k-points (npk) =  40000
     Max angular momentum in pseudopotentials (lmaxx) =  3

     Atomic positions and unit cell read from directory:
     ./out/Si.save/

               file Si.pbe-mt_fhi.UPF: wavefunction(s)  4f renormalized

     Subspace diagonalization in iterative solution of the eigenvalue problem:
     a serial algorithm will be used


     G-vector sticks info
     --------------------
     sticks:   dense  smooth     PW     G-vecs:    dense   smooth      PW
     Sum         733     733    223                12939    12939    2229



     bravais-lattice index     =            2
     lattice parameter (alat)  =      10.2623  a.u.
     unit-cell volume          =     270.1967 (a.u.)^3
     number of atoms/cell      =            2
     number of atomic types    =            1
     number of electrons       =         9.00
     number of Kohn-Sham states=           10
     kinetic-energy cutoff     =      50.0000  Ry
     charge density cutoff     =     200.0000  Ry
     Exchange-correlation      = PBE ( 1  4  3  4 0)

     celldm(1)=  10.262347  celldm(2)=   0.000000  celldm(3)=   0.000000
     celldm(4)=   0.000000  celldm(5)=   0.000000  celldm(6)=   0.000000

     crystal axes: (cart. coord. in units of alat)
               a(1) = (  -0.500000   0.000000   0.500000 )  
               a(2) = (   0.000000   0.500000   0.500000 )  
               a(3) = (  -0.500000   0.500000   0.000000 )  

     reciprocal axes: (cart. coord. in units 2 pi/alat)
               b(1) = ( -1.000000 -1.000000  1.000000 )  
               b(2) = (  1.000000  1.000000  1.000000 )  
               b(3) = ( -1.000000  1.000000 -1.000000 )  


     PseudoPot. # 1 for Si read from file:
     /home/acedemo/psudo/Si.pbe-mt_fhi.UPF
     MD5 check sum: 259057c2adf9952f9ced37ae3d9e311d
     Pseudo is Norm-conserving, Zval =  4.0
     Generated using FHI98PP, converted with fhi2upf.x v.5.0.2
     Using radial grid of  495 points,  3 beta functions with: 
                l(1) =   0
                l(2) =   1
                l(3) =   3

     atomic species   valence    mass     pseudopotential
        Si             4.00    28.08550     Si( 1.00)

     48 Sym. Ops., with inversion, found (24 have fractional translation)



   Cartesian axes

     site n.     atom                  positions (alat units)
         1           Si  tau(   1) = (   0.0000000   0.0000000   0.0000000  )
         2           Si  tau(   2) = (   0.2500000   0.2500000   0.2500000  )

     number of k points=    72 (tetrahedron method)
                       cart. coord. in units 2pi/alat
        k(    1) = (   0.0000000   0.0000000   0.0000000), wk =   0.0011574
        k(    2) = (  -0.0833333   0.0833333  -0.0833333), wk =   0.0092593
        k(    3) = (  -0.1666667   0.1666667  -0.1666667), wk =   0.0092593
        k(    4) = (  -0.2500000   0.2500000  -0.2500000), wk =   0.0092593
        k(    5) = (  -0.3333333   0.3333333  -0.3333333), wk =   0.0092593
        k(    6) = (  -0.4166667   0.4166667  -0.4166667), wk =   0.0092593
        k(    7) = (   0.5000000  -0.5000000   0.5000000), wk =   0.0046296
        k(    8) = (   0.0000000   0.1666667   0.0000000), wk =   0.0069444
        k(    9) = (  -0.0833333   0.2500000  -0.0833333), wk =   0.0277778
        k(   10) = (  -0.1666667   0.3333333  -0.1666667), wk =   0.0277778
        k(   11) = (  -0.2500000   0.4166667  -0.2500000), wk =   0.0277778
        k(   12) = (  -0.3333333   0.5000000  -0.3333333), wk =   0.0277778
        k(   13) = (   0.5833333  -0.4166667   0.5833333), wk =   0.0277778
        k(   14) = (   0.5000000  -0.3333333   0.5000000), wk =   0.0277778
        k(   15) = (   0.4166667  -0.2500000   0.4166667), wk =   0.0277778
        k(   16) = (   0.3333333  -0.1666667   0.3333333), wk =   0.0277778
        k(   17) = (   0.2500000  -0.0833333   0.2500000), wk =   0.0277778
        k(   18) = (   0.1666667  -0.0000000   0.1666667), wk =   0.0138889
        k(   19) = (   0.0000000   0.3333333   0.0000000), wk =   0.0069444
        k(   20) = (  -0.0833333   0.4166667  -0.0833333), wk =   0.0277778
        k(   21) = (  -0.1666667   0.5000000  -0.1666667), wk =   0.0277778
        k(   22) = (  -0.2500000   0.5833333  -0.2500000), wk =   0.0277778
        k(   23) = (   0.6666667  -0.3333333   0.6666667), wk =   0.0277778
        k(   24) = (   0.5833333  -0.2500000   0.5833333), wk =   0.0277778
        k(   25) = (   0.5000000  -0.1666667   0.5000000), wk =   0.0277778
        k(   26) = (   0.4166667  -0.0833333   0.4166667), wk =   0.0277778
        k(   27) = (   0.3333333   0.0000000   0.3333333), wk =   0.0138889
        k(   28) = (   0.0000000   0.5000000   0.0000000), wk =   0.0069444
        k(   29) = (  -0.0833333   0.5833333  -0.0833333), wk =   0.0277778
        k(   30) = (  -0.1666667   0.6666667  -0.1666667), wk =   0.0277778
        k(   31) = (   0.7500000  -0.2500000   0.7500000), wk =   0.0277778
        k(   32) = (   0.6666667  -0.1666667   0.6666667), wk =   0.0277778
        k(   33) = (   0.5833333  -0.0833333   0.5833333), wk =   0.0277778
        k(   34) = (   0.5000000   0.0000000   0.5000000), wk =   0.0138889
        k(   35) = (   0.0000000   0.6666667   0.0000000), wk =   0.0069444
        k(   36) = (  -0.0833333   0.7500000  -0.0833333), wk =   0.0277778
        k(   37) = (   0.8333333  -0.1666667   0.8333333), wk =   0.0277778
        k(   38) = (   0.7500000  -0.0833333   0.7500000), wk =   0.0277778
        k(   39) = (   0.6666667   0.0000000   0.6666667), wk =   0.0138889
        k(   40) = (   0.0000000   0.8333333   0.0000000), wk =   0.0069444
        k(   41) = (   0.9166667  -0.0833333   0.9166667), wk =   0.0277778
        k(   42) = (   0.8333333   0.0000000   0.8333333), wk =   0.0138889
        k(   43) = (   0.0000000  -1.0000000   0.0000000), wk =   0.0034722
        k(   44) = (  -0.1666667   0.3333333   0.0000000), wk =   0.0277778
        k(   45) = (  -0.2500000   0.4166667  -0.0833333), wk =   0.0555556
        k(   46) = (  -0.3333333   0.5000000  -0.1666667), wk =   0.0555556
        k(   47) = (   0.5833333  -0.4166667   0.7500000), wk =   0.0555556
        k(   48) = (   0.5000000  -0.3333333   0.6666667), wk =   0.0277778
        k(   49) = (  -0.1666667   0.5000000   0.0000000), wk =   0.0277778
        k(   50) = (  -0.2500000   0.5833333  -0.0833333), wk =   0.0555556
        k(   51) = (   0.6666667  -0.3333333   0.8333333), wk =   0.0555556
        k(   52) = (   0.5833333  -0.2500000   0.7500000), wk =   0.0555556
        k(   53) = (   0.5000000  -0.1666667   0.6666667), wk =   0.0555556
        k(   54) = (   0.4166667  -0.0833333   0.5833333), wk =   0.0555556
        k(   55) = (   0.3333333   0.0000000   0.5000000), wk =   0.0277778
        k(   56) = (  -0.1666667   0.6666667  -0.0000000), wk =   0.0277778
        k(   57) = (   0.7500000  -0.2500000   0.9166667), wk =   0.0555556
        k(   58) = (   0.6666667  -0.1666667   0.8333333), wk =   0.0555556
        k(   59) = (   0.5833333  -0.0833333   0.7500000), wk =   0.0555556
        k(   60) = (   0.5000000   0.0000000   0.6666667), wk =   0.0277778
        k(   61) = (   0.8333333  -0.1666667   1.0000000), wk =   0.0277778
        k(   62) = (   0.7500000  -0.0833333   0.9166667), wk =   0.0555556
        k(   63) = (   0.6666667   0.0000000   0.8333333), wk =   0.0277778
        k(   64) = (  -0.1666667  -1.0000000   0.0000000), wk =   0.0138889
        k(   65) = (   0.6666667  -0.3333333   1.0000000), wk =   0.0277778
        k(   66) = (   0.5833333  -0.2500000   0.9166667), wk =   0.0555556
        k(   67) = (   0.5000000  -0.1666667   0.8333333), wk =   0.0277778
        k(   68) = (   0.6666667  -0.1666667   1.0000000), wk =   0.0277778
        k(   69) = (   0.5833333  -0.0833333   0.9166667), wk =   0.0555556
        k(   70) = (   0.5000000   0.0000000   0.8333333), wk =   0.0277778
        k(   71) = (  -0.3333333  -1.0000000   0.0000000), wk =   0.0138889
        k(   72) = (  -0.5000000  -1.0000000   0.0000000), wk =   0.0069444

     Dense  grid:    12939 G-vectors     FFT dimensions: (  36,  36,  36)

     Largest allocated arrays     est. size (Mb)     dimensions
        Kohn-Sham Wavefunctions         0.25 Mb     (    1639,   10)
        NL pseudopotentials             0.55 Mb     (    1639,   22)
        Each V/rho on FFT grid          0.71 Mb     (   46656)
        Each G-vector array             0.10 Mb     (   12939)
        G-vector shells                 0.00 Mb     (     180)
     Largest temporary arrays     est. size (Mb)     dimensions
        Auxiliary wavefunctions         1.00 Mb     (    1639,   40)
        Each subspace H/S matrix        0.02 Mb     (      40,   40)
        Each <psi_i|beta_j> matrix      0.00 Mb     (      22,   10)

     The potential is recalculated from file :
     ./out/Si.save/charge-density.dat

     Starting wfc are   32 randomized atomic wfcs

     Band Structure Calculation
     Davidson diagonalization with overlap

     ethr =  1.78E-11,  avg # of iterations = 19.1

     total cpu time spent up to now is       35.1 secs

     End of band structure calculation

          k = 0.0000 0.0000 0.0000 (  1639 PWs)   bands (ev):

    -6.1106   5.9506   5.9506   5.9506   8.4179   8.4179   8.4179   9.1708
    13.2936  13.6080

          k =-0.0833 0.0833-0.0833 (  1612 PWs)   bands (ev):

    -6.0185   5.0668   5.8014   5.8014   8.4413   8.6351   8.6351   9.8463
    13.3052  13.3052

          k =-0.1667 0.1667-0.1667 (  1591 PWs)   bands (ev):

    -5.7450   3.5197   5.4872   5.4872   8.1537   9.0758   9.0758  11.2507
    12.9025  12.9025

          k =-0.2500 0.2500-0.2500 (  1618 PWs)   bands (ev):

    -5.3003   1.9534   5.1741   5.1741   7.8151   9.3584   9.3584  12.6654
    13.0063  13.0063

          k =-0.3333 0.3333-0.3333 (  1616 PWs)   bands (ev):

    -4.7130   0.5267   4.9323   4.9323   7.5426   9.3358   9.3358  13.4333
    13.8095  13.8095

          k =-0.4167 0.4167-0.4167 (  1616 PWs)   bands (ev):

    -4.0758  -0.6253   4.7840   4.7840   7.3723   9.2069   9.2069  13.2716
    15.1107  15.1107

          k = 0.5000-0.5000 0.5000 (  1622 PWs)   bands (ev):

    -3.7273  -1.1470   4.7344   4.7344   7.3148   9.1471   9.1471  13.1748
    16.4207  16.4207

          k = 0.0000 0.1667 0.0000 (  1615 PWs)   bands (ev):

    -5.9877   5.2476   5.5014   5.5014   8.1090   9.0146   9.0146   9.8169
    12.7668  13.7427

          k =-0.0833 0.2500-0.0833 (  1599 PWs)   bands (ev):

    -5.7742   3.9888   5.1282   5.3263   8.1189   9.0795   9.5595  10.7032
    12.4090  13.6576

          k =-0.1667 0.3333-0.1667 (  1610 PWs)   bands (ev):

    -5.3851   2.4643   4.8110   4.9927   8.2362   9.0636   9.9370  11.1471
    13.1886  13.6937

          k =-0.2500 0.4167-0.2500 (  1606 PWs)   bands (ev):

    -4.8405   1.0071   4.6010   4.6324   8.0865   9.1196   9.9374  11.7181
    14.3550  14.3579

          k =-0.3333 0.5000-0.3333 (  1616 PWs)   bands (ev):

    -4.2007  -0.2449   4.3310   4.5138   7.9193   9.0599   9.7214  12.7529
    14.2687  15.5543

          k = 0.5833-0.4167 0.5833 (  1615 PWs)   bands (ev):

    -3.6915  -1.0365   4.1215   4.5490   7.8401   9.0495   9.5098  13.4846
    14.7603  16.3692

          k = 0.5000-0.3333 0.5000 (  1616 PWs)   bands (ev):

    -3.8179  -0.8526   4.0220   4.6976   7.8696   9.1664   9.3966  13.5687
    14.7883  15.2120

          k = 0.4167-0.2500 0.4167 (  1611 PWs)   bands (ev):

    -4.4180   0.1428   4.0459   4.9430   8.0062   9.3736   9.3894  13.1730
    13.3899  14.6722

          k = 0.3333-0.1667 0.3333 (  1605 PWs)   bands (ev):

    -5.0381   1.4786   4.2040   5.2593   8.2383   9.3125   9.5695  12.2580
    12.4575  14.8139

          k = 0.2500-0.0833 0.2500 (  1600 PWs)   bands (ev):

    -5.5342   2.9594   4.5093   5.5950   8.5342   9.0262   9.3759  11.5170
    12.2312  13.7430

          k = 0.1667-0.0000 0.1667 (  1592 PWs)   bands (ev):

    -5.8658   4.3329   5.0441   5.8342   8.6680   8.7822   8.7993  10.6485
    12.6341  13.4032

          k = 0.0000 0.3333 0.0000 (  1607 PWs)   bands (ev):

    -5.6208   3.9005   4.7186   4.7186   7.4714  10.0600  10.2320  10.2320
    12.3897  14.1463

          k =-0.0833 0.4167-0.0833 (  1616 PWs)   bands (ev):

    -5.2895   2.7973   4.3607   4.3788   7.4880   9.6454  10.5229  10.7921
    13.3951  14.3581

          k =-0.1667 0.5000-0.1667 (  1611 PWs)   bands (ev):

    -4.7942   1.4636   3.8929   4.1587   7.7221   9.8352  10.3250  10.9413
    14.9213  14.9322

          k =-0.2500 0.5833-0.2500 (  1610 PWs)   bands (ev):

    -4.1745   0.2054   3.4435   4.0763   7.7521  10.0780  10.7400  10.8070
    15.4710  16.0538

          k = 0.6667-0.3333 0.6667 (  1607 PWs)   bands (ev):

    -3.5731  -0.7531   3.0912   4.1343   7.7815   9.9146  10.4536  12.1935
    15.0334  16.3273

          k = 0.5833-0.2500 0.5833 (  1602 PWs)   bands (ev):

    -3.4531  -0.9195   2.8703   4.3247   7.9361   9.8540  10.2221  13.7369
    14.2603  14.6155

          k = 0.5000-0.1667 0.5000 (  1610 PWs)   bands (ev):

    -3.9700  -0.1379   2.8072   4.6283   8.2210   9.9003  10.0618  13.0325
    13.1404  15.0962

          k = 0.4167-0.0833 0.4167 (  1613 PWs)   bands (ev):

    -4.6082   1.0344   2.9454   5.0065   8.5813   9.8507   9.9620  11.8724
    12.1409  15.8777

          k = 0.3333 0.0000 0.3333 (  1604 PWs)   bands (ev):

    -5.1488   2.1949   3.4401   5.3804   8.8705   9.4156   9.6483  11.4045
    11.8812  15.2070

          k = 0.0000 0.5000 0.0000 (  1612 PWs)   bands (ev):

    -5.0157   2.4207   4.0093   4.0093   6.8583   8.8297  11.6454  11.6454
    13.8334  14.8180

          k =-0.0833 0.5833-0.0833 (  1617 PWs)   bands (ev):

    -4.5733   1.5024   3.5207   3.7598   6.9436   8.4713  11.9089  12.1172
    15.1284  15.3807

          k =-0.1667 0.6667-0.1667 (  1620 PWs)   bands (ev):

    -3.9883   0.4568   2.8610   3.6526   7.1467   8.9755  11.7503  12.0559
    16.4748  16.7662

          k = 0.7500-0.2500 0.7500 (  1617 PWs)   bands (ev):

    -3.3489  -0.4918   2.2983   3.6940   7.2250  10.1926  11.5722  11.7647
    15.9322  16.3861

          k = 0.6667-0.1667 0.6667 (  1607 PWs)   bands (ev):

    -3.0110  -0.9228   1.9244   3.8795   7.4094  11.2125  11.4627  11.9804
    14.5234  14.6039

          k = 0.5833-0.0833 0.5833 (  1611 PWs)   bands (ev):

    -3.3992  -0.4122   1.7955   4.1924   7.7495  11.1702  11.2122  12.9354
    13.1027  13.7340

          k = 0.5000 0.0000 0.5000 (  1604 PWs)   bands (ev):

    -4.0359   0.4272   2.0603   4.5956   8.2039  10.6492  10.9141  11.8952
    12.2309  15.4085

          k = 0.0000 0.6667 0.0000 (  1624 PWs)   bands (ev):

    -4.1832   0.9200   3.4739   3.4739   6.4292   7.6635  13.1446  13.1446
    15.5776  15.7559

          k =-0.0833 0.7500-0.0833 (  1618 PWs)   bands (ev):

    -3.6408   0.1281   2.9572   3.3297   6.5914   7.5479  13.4416  13.5019
    16.6721  16.8772

          k = 0.8333-0.1667 0.8333 (  1619 PWs)   bands (ev):

    -2.9995  -0.6486   2.1889   3.3372   6.7504   8.4481  13.3042  13.3067
    16.4043  16.5512

          k = 0.7500-0.0833 0.7500 (  1620 PWs)   bands (ev):

    -2.5130  -1.1530   1.5844   3.4950   6.9292   9.9146  12.9527  13.1189
    14.7067  14.7668

          k = 0.6667 0.0000 0.6667 (  1612 PWs)   bands (ev):

    -2.7884  -0.8660   1.3742   3.7906   7.2687  11.5428  12.3396  12.8973
    13.2094  13.4746

          k = 0.0000 0.8333 0.0000 (  1628 PWs)   bands (ev):

    -3.1406  -0.5441   3.1444   3.1444   6.2556   6.8418  14.6958  14.6958
    16.9572  17.2545

          k = 0.9167-0.0833 0.9167 (  1622 PWs)   bands (ev):

    -2.5178  -1.2384   2.6797   3.1107   6.4511   7.0389  14.9340  15.0114
    16.6822  16.7622

          k = 0.8333 0.0000 0.8333 (  1614 PWs)   bands (ev):

    -2.0452  -1.6514   1.9667   3.2305   6.6110   8.2773  14.3892  14.8669
    14.9250  15.2853

          k = 0.0000-1.0000 0.0000 (  1604 PWs)   bands (ev):

    -1.9147  -1.9147   3.0334   3.0334   6.3814   6.3814  15.9678  15.9678
    16.8393  16.8393

          k =-0.1667 0.3333 0.0000 (  1603 PWs)   bands (ev):

    -5.5021   3.1932   4.2487   5.2285   8.1363   9.4035  10.0211  10.6647
    12.6652  14.0153

          k =-0.2500 0.4167-0.0833 (  1607 PWs)   bands (ev):

    -5.0595   1.9335   3.7060   4.9460   8.4132   9.3604  10.4087  10.6307
    13.1231  15.1269

          k =-0.3333 0.5000-0.1667 (  1604 PWs)   bands (ev):

    -4.4741   0.6078   3.4377   4.6093   8.4487   9.1924  10.4614  11.2960
    13.9896  15.4144

          k = 0.5833-0.4167 0.7500 (  1612 PWs)   bands (ev):

    -3.8362  -0.5061   3.3127   4.3559   8.3977   8.9657  10.3715  12.5251
    14.7061  15.4150

          k = 0.5000-0.3333 0.6667 (  1602 PWs)   bands (ev):

    -3.4837  -1.0211   3.2783   4.2616   8.3817   8.8660  10.3235  13.7720
    14.0345  15.5979

          k =-0.1667 0.5000 0.0000 (  1617 PWs)   bands (ev):

    -4.9033   2.0059   3.5378   4.2793   7.5520   9.2431  10.6657  11.5131
    13.9837  15.2893

          k =-0.2500 0.5833-0.0833 (  1611 PWs)   bands (ev):

    -4.3622   0.9405   2.9858   3.9783   7.8790   9.4724  10.3914  11.8840
    14.6821  16.5960

          k = 0.6667-0.3333 0.8333 (  1617 PWs)   bands (ev):

    -3.7233  -0.1382   2.6252   3.7596   7.9858   9.9927  10.5916  11.8516
    15.5842  15.8865

          k = 0.5833-0.2500 0.7500 (  1607 PWs)   bands (ev):

    -3.2089  -0.8678   2.3750   3.7411   8.1147   9.7200  11.7279  12.0663
    14.0583  16.2958

          k = 0.5000-0.1667 0.6667 (  1605 PWs)   bands (ev):

    -3.3496  -0.6742   2.2502   3.9199   8.3762   9.5257  11.6498  12.4368
    13.7722  15.1064

          k = 0.4167-0.0833 0.5833 (  1610 PWs)   bands (ev):

    -3.9567   0.2284   2.3169   4.2479   8.7583   9.3891  11.0624  11.5932
    13.8058  15.4232

          k = 0.3333 0.0000 0.5000 (  1606 PWs)   bands (ev):

    -4.5709   1.2251   2.7354   4.6440   9.0134   9.1728  10.3996  11.1831
    13.0834  16.4655

          k =-0.1667 0.6667-0.0000 (  1626 PWs)   bands (ev):

    -4.0821   0.7422   3.0189   3.4678   7.1287   8.1696  11.9095  13.0883
    15.4532  16.8938

          k = 0.7500-0.2500 0.9167 (  1621 PWs)   bands (ev):

    -3.4655  -0.1021   2.4036   3.2400   7.4520   8.7348  11.5889  13.4420
    16.0242  16.4044

          k = 0.6667-0.1667 0.8333 (  1616 PWs)   bands (ev):

    -2.8597  -0.8337   1.8625   3.2485   7.6004  10.0483  11.2863  13.3632
    14.2457  16.7213

          k = 0.5833-0.0833 0.7500 (  1614 PWs)   bands (ev):

    -2.7827  -0.9098   1.5616   3.4534   7.8646  10.8357  11.8346  12.5392
    13.2487  15.1773

          k = 0.5000 0.0000 0.6667 (  1621 PWs)   bands (ev):

    -3.3346  -0.3081   1.6486   3.8098   8.2732  10.4447  11.2704  12.6623
    13.7614  14.0303

          k = 0.8333-0.1667 1.0000 (  1617 PWs)   bands (ev):

    -3.0602  -0.5783   2.7307   2.9355   6.9387   7.4256  13.2767  14.6916
    16.4034  16.9489

          k = 0.7500-0.0833 0.9167 (  1620 PWs)   bands (ev):

    -2.4179  -1.2269   2.0636   2.8888   7.2221   8.3746  12.9404  14.4260
    15.1115  16.8138

          k = 0.6667 0.0000 0.8333 (  1620 PWs)   bands (ev):

    -2.2498  -1.3484   1.5406   3.0916   7.4650   9.9215  12.4854  12.8457
    14.6493  15.5166

          k =-0.1667-1.0000 0.0000 (  1622 PWs)   bands (ev):

    -1.8732  -1.8732   2.6961   2.6961   7.0256   7.0256  14.7428  14.7428
    16.4526  16.4526

          k = 0.6667-0.3333 1.0000 (  1610 PWs)   bands (ev):

    -3.7883   0.2754   2.2528   3.5767   8.6274   9.4238  10.0565  12.9254
    14.8130  15.6890

          k = 0.5833-0.2500 0.9167 (  1611 PWs)   bands (ev):

    -3.1498  -0.5072   1.8977   3.2241   8.9806   9.5377  10.5350  13.3398
    13.8955  15.7912

          k = 0.5000-0.1667 0.8333 (  1610 PWs)   bands (ev):

    -2.7768  -0.9511   1.8050   3.0893   9.0874   9.3507  11.8644  12.3271
    13.4037  16.9342

          k = 0.6667-0.1667 1.0000 (  1618 PWs)   bands (ev):

    -2.8377  -0.7209   2.0478   2.6857   8.4367   8.8097  11.1942  14.1205
    14.7046  16.5724

          k = 0.5833-0.0833 0.9167 (  1615 PWs)   bands (ev):

    -2.3002  -1.2344   1.7151   2.5250   8.7673  10.0295  10.9194  12.2944
    15.0798  16.9754

          k = 0.5000 0.0000 0.8333 (  1612 PWs)   bands (ev):

    -2.5346  -1.0040   1.5853   2.7586   9.0722  10.2458  10.7815  12.0409
    14.6621  16.0463

          k =-0.3333-1.0000 0.0000 (  1618 PWs)   bands (ev):

    -1.7836  -1.7836   2.1735   2.1735   8.4869   8.4869  12.5697  12.5697
    16.4319  16.4319

          k =-0.5000-1.0000 0.0000 (  1628 PWs)   bands (ev):

    -1.7349  -1.7349   1.9519   1.9519  10.0022  10.0022  10.8184  10.8184
    16.4390  16.4390

     the Fermi energy is     7.9763 ev

     Writing output data file Si.save

     init_run     :      0.16s CPU      0.18s WALL (       1 calls)
     electrons    :     33.92s CPU     34.42s WALL (       1 calls)

     Called by init_run:
     wfcinit      :      0.00s CPU      0.00s WALL (       1 calls)
     potinit      :      0.04s CPU      0.04s WALL (       1 calls)

     Called by electrons:
     c_bands      :     33.76s CPU     34.26s WALL (       1 calls)
     v_of_rho     :      0.03s CPU      0.03s WALL (       1 calls)

     Called by c_bands:
     init_us_2    :      0.10s CPU      0.11s WALL (      72 calls)
     cegterg      :     26.28s CPU     26.66s WALL (      97 calls)

     Called by *egterg:
     h_psi        :     28.46s CPU     28.85s WALL (    1545 calls)
     g_psi        :      0.07s CPU      0.07s WALL (    1376 calls)
     cdiaghg      :      0.58s CPU      0.59s WALL (    1448 calls)

     Called by h_psi:
     add_vuspsi   :      0.81s CPU      0.81s WALL (    1545 calls)

     General routines
     calbec       :      0.89s CPU      0.91s WALL (    1545 calls)
     fft          :      0.02s CPU      0.02s WALL (      10 calls)
     fftw         :     25.38s CPU     25.72s WALL (   22110 calls)
     davcio       :      0.00s CPU      0.01s WALL (      72 calls)

     Parallel routines
     fft_scatter  :      0.63s CPU      0.63s WALL (   22120 calls)

     PWSCF        :    35.98s CPU        36.54s WALL


   This run was terminated on:  17:14:57  13Feb2023            

=------------------------------------------------------------------------------=
   JOB DONE.
=------------------------------------------------------------------------------=
