
     Program PWSCF v.5.1 starts on 13Feb2023 at 17:12:52 

     This program is part of the open-source Quantum ESPRESSO suite
     for quantum simulation of materials; please cite
         "P. Giannozzi et al., J. Phys.:Condens. Matter 21 395502 (2009);
          URL http://www.quantum-espresso.org", 
     in publications or presentations arising from this work. More details at
     http://www.quantum-espresso.org/quote

     Parallel version (MPI), running on     1 processors
     Waiting for input...
     Reading input from standard input

     Current dimensions of program PWSCF are:
     Max number of different atomic species (ntypx) = 10
     Max number of k-points (npk) =  40000
     Max angular momentum in pseudopotentials (lmaxx) =  3
               file Si.pbe-mt_fhi.UPF: wavefunction(s)  4f renormalized

     Subspace diagonalization in iterative solution of the eigenvalue problem:
     a serial algorithm will be used


     G-vector sticks info
     --------------------
     sticks:   dense  smooth     PW     G-vecs:    dense   smooth      PW
     Sum         733     733    211                12939    12939    2109



     bravais-lattice index     =            2
     lattice parameter (alat)  =      10.2623  a.u.
     unit-cell volume          =     270.1967 (a.u.)^3
     number of atoms/cell      =            2
     number of atomic types    =            1
     number of electrons       =         9.00
     number of Kohn-Sham states=           10
     kinetic-energy cutoff     =      50.0000  Ry
     charge density cutoff     =     200.0000  Ry
     convergence threshold     =      1.6E-09
     mixing beta               =       0.3000
     number of iterations used =            8  plain     mixing
     Exchange-correlation      = PBE ( 1  4  3  4 0)

     celldm(1)=  10.262347  celldm(2)=   0.000000  celldm(3)=   0.000000
     celldm(4)=   0.000000  celldm(5)=   0.000000  celldm(6)=   0.000000

     crystal axes: (cart. coord. in units of alat)
               a(1) = (  -0.500000   0.000000   0.500000 )  
               a(2) = (   0.000000   0.500000   0.500000 )  
               a(3) = (  -0.500000   0.500000   0.000000 )  

     reciprocal axes: (cart. coord. in units 2 pi/alat)
               b(1) = ( -1.000000 -1.000000  1.000000 )  
               b(2) = (  1.000000  1.000000  1.000000 )  
               b(3) = ( -1.000000  1.000000 -1.000000 )  


     PseudoPot. # 1 for Si read from file:
     /home/acedemo/psudo/Si.pbe-mt_fhi.UPF
     MD5 check sum: 259057c2adf9952f9ced37ae3d9e311d
     Pseudo is Norm-conserving, Zval =  4.0
     Generated using FHI98PP, converted with fhi2upf.x v.5.0.2
     Using radial grid of  495 points,  3 beta functions with: 
                l(1) =   0
                l(2) =   1
                l(3) =   3

     atomic species   valence    mass     pseudopotential
        Si             4.00    28.08550     Si( 1.00)

     48 Sym. Ops., with inversion, found (24 have fractional translation)



   Cartesian axes

     site n.     atom                  positions (alat units)
         1           Si  tau(   1) = (   0.0000000   0.0000000   0.0000000  )
         2           Si  tau(   2) = (   0.2500000   0.2500000   0.2500000  )

     number of k points=    10  Marzari-Vanderbilt smearing, width (Ry)=  0.0500
                       cart. coord. in units 2pi/alat
        k(    1) = (   0.0000000   0.0000000   0.0000000), wk =   0.0160000
        k(    2) = (  -0.2000000   0.2000000  -0.2000000), wk =   0.1280000
        k(    3) = (  -0.4000000   0.4000000  -0.4000000), wk =   0.1280000
        k(    4) = (   0.0000000   0.4000000   0.0000000), wk =   0.0960000
        k(    5) = (  -0.2000000   0.6000000  -0.2000000), wk =   0.3840000
        k(    6) = (   0.6000000  -0.2000000   0.6000000), wk =   0.3840000
        k(    7) = (   0.4000000   0.0000000   0.4000000), wk =   0.1920000
        k(    8) = (   0.0000000   0.8000000   0.0000000), wk =   0.0960000
        k(    9) = (   0.8000000   0.0000000   0.8000000), wk =   0.1920000
        k(   10) = (   0.6000000  -0.2000000   1.0000000), wk =   0.3840000

     Dense  grid:    12939 G-vectors     FFT dimensions: (  36,  36,  36)

     Largest allocated arrays     est. size (Mb)     dimensions
        Kohn-Sham Wavefunctions         0.25 Mb     (    1639,   10)
        NL pseudopotentials             0.55 Mb     (    1639,   22)
        Each V/rho on FFT grid          0.71 Mb     (   46656)
        Each G-vector array             0.10 Mb     (   12939)
        G-vector shells                 0.00 Mb     (     180)
     Largest temporary arrays     est. size (Mb)     dimensions
        Auxiliary wavefunctions         1.00 Mb     (    1639,   40)
        Each subspace H/S matrix        0.02 Mb     (      40,   40)
        Each <psi_i|beta_j> matrix      0.00 Mb     (      22,   10)
        Arrays for rho mixing           5.70 Mb     (   46656,    8)

     Initial potential from superposition of free atoms

     starting charge    7.99859, renormalised to    9.00000
     Starting wfc are   32 randomized atomic wfcs

     total cpu time spent up to now is        1.4 secs

     per-process dynamical memory:    15.9 Mb

     Self-consistent Calculation

     iteration #  1     ecut=    50.00 Ry     beta=0.30
     Davidson diagonalization with overlap
     ethr =  1.00E-02,  avg # of iterations =  2.4

     Threshold (ethr) on eigenvalues was too large:
     Diagonalizing with lowered threshold

     Davidson diagonalization with overlap
     ethr =  2.21E-04,  avg # of iterations =  2.2

     total cpu time spent up to now is        3.8 secs

     total energy              =     -15.21665205 Ry
     Harris-Foulkes estimate   =     -15.21741675 Ry
     estimated scf accuracy    <       0.02025157 Ry

     iteration #  2     ecut=    50.00 Ry     beta=0.30
     Davidson diagonalization with overlap
     ethr =  2.25E-04,  avg # of iterations =  1.0

     total cpu time spent up to now is        5.0 secs

     total energy              =     -15.21611645 Ry
     Harris-Foulkes estimate   =     -15.21671945 Ry
     estimated scf accuracy    <       0.00962424 Ry

     iteration #  3     ecut=    50.00 Ry     beta=0.30
     Davidson diagonalization with overlap
     ethr =  1.07E-04,  avg # of iterations =  1.0

     total cpu time spent up to now is        5.9 secs

     total energy              =     -15.21627222 Ry
     Harris-Foulkes estimate   =     -15.21628345 Ry
     estimated scf accuracy    <       0.00006511 Ry

     iteration #  4     ecut=    50.00 Ry     beta=0.30
     Davidson diagonalization with overlap
     ethr =  7.23E-07,  avg # of iterations =  4.1

     total cpu time spent up to now is        7.1 secs

     total energy              =     -15.21626103 Ry
     Harris-Foulkes estimate   =     -15.21632398 Ry
     estimated scf accuracy    <       0.00012193 Ry

     iteration #  5     ecut=    50.00 Ry     beta=0.30
     Davidson diagonalization with overlap
     ethr =  7.23E-07,  avg # of iterations =  2.0

     total cpu time spent up to now is        8.2 secs

     total energy              =     -15.21627676 Ry
     Harris-Foulkes estimate   =     -15.21627617 Ry
     estimated scf accuracy    <       0.00000014 Ry

     iteration #  6     ecut=    50.00 Ry     beta=0.30
     Davidson diagonalization with overlap
     ethr =  1.53E-09,  avg # of iterations =  2.2

     total cpu time spent up to now is        9.0 secs

     total energy              =     -15.21627683 Ry
     Harris-Foulkes estimate   =     -15.21627684 Ry
     estimated scf accuracy    <       0.00000012 Ry

     iteration #  7     ecut=    50.00 Ry     beta=0.30
     Davidson diagonalization with overlap
     ethr =  1.32E-09,  avg # of iterations =  1.0

     total cpu time spent up to now is        9.8 secs

     End of self-consistent calculation

          k = 0.0000 0.0000 0.0000 (  1639 PWs)   bands (ev):

    -6.1106   5.9507   5.9507   5.9507   8.4179   8.4179   8.4179   9.1710
    13.6081  13.6081

          k =-0.2000 0.2000-0.2000 (  1606 PWs)   bands (ev):

    -5.5866   2.8838   5.3563   5.3563   8.0149   9.2261   9.2261  11.8321
    12.8608  12.8608

          k =-0.4000 0.4000-0.4000 (  1616 PWs)   bands (ev):

    -4.1970  -0.4280   4.8060   4.8060   7.3976   9.2308   9.2308  13.3101
    14.8229  14.8229

          k = 0.0000 0.4000 0.0000 (  1607 PWs)   bands (ev):

    -5.4068   3.3155   4.4178   4.4178   7.2112   9.6166  10.7831  10.7831
    12.8726  14.3830

          k =-0.2000 0.6000-0.2000 (  1619 PWs)   bands (ev):

    -4.2481   0.5876   3.2417   3.9051   7.5060   9.8245  10.7689  11.2916
    15.9868  16.1273

          k = 0.6000-0.2000 0.6000 (  1596 PWs)   bands (ev):

    -3.3370  -0.8438   2.4116   4.1993   7.7908  10.3906  10.6346  13.3471
    14.1197  14.2657

          k = 0.4000 0.0000 0.4000 (  1610 PWs)   bands (ev):

    -4.7431   1.4346   2.8346   5.0921   8.6959   9.8518  10.1042  11.4749
    11.8924  16.3264

          k = 0.0000 0.8000 0.0000 (  1624 PWs)   bands (ev):

    -3.3647  -0.2569   3.1932   3.1932   6.2677   6.9768  14.3834  14.3834
    16.6961  16.9324

          k = 0.8000 0.0000 0.8000 (  1622 PWs)   bands (ev):

    -2.1286  -1.5357   1.7363   3.3157   6.7105   8.8952  13.9626  14.4667
    14.5319  14.8951

          k = 0.6000-0.2000 1.0000 (  1616 PWs)   bands (ev):

    -2.9097  -0.6416   1.8266   2.8474   9.1640   9.4875  10.2490  13.5822
    14.3184  16.0233

     the Fermi energy is     7.7331 ev

!    total energy              =     -15.21627683 Ry
     Harris-Foulkes estimate   =     -15.21627683 Ry
     estimated scf accuracy    <          1.3E-09 Ry

     The total energy is the sum of the following terms:

     one-electron contribution =       5.99503832 Ry
     hartree contribution      =       1.09043586 Ry
     xc contribution           =      -5.50016617 Ry
     ewald contribution        =     -16.79708774 Ry
     smearing contrib. (-TS)   =      -0.00449709 Ry

     convergence has been achieved in   7 iterations

     Forces acting on atoms (Ry/au):

     atom    1 type  1   force =    -0.00000000    0.00000000   -0.00000000
     atom    2 type  1   force =     0.00000000    0.00000000    0.00000000

     Total force =     0.000000     Total SCF correction =     0.000000


     entering subroutine stress ...

          total   stress  (Ry/bohr**3)                   (kbar)     P=  417.81
   0.00284019   0.00000000   0.00000000        417.81      0.00      0.00
   0.00000000   0.00284019  -0.00000000          0.00    417.81     -0.00
   0.00000000  -0.00000000   0.00284019          0.00     -0.00    417.81


     Writing output data file Si.save

     init_run     :      1.32s CPU      1.40s WALL (       1 calls)
     electrons    :      7.71s CPU      8.35s WALL (       1 calls)
     forces       :      0.09s CPU      0.09s WALL (       1 calls)
     stress       :      0.63s CPU      0.68s WALL (       1 calls)

     Called by init_run:
     wfcinit      :      1.14s CPU      1.19s WALL (       1 calls)
     potinit      :      0.06s CPU      0.07s WALL (       1 calls)

     Called by electrons:
     c_bands      :      5.96s CPU      6.50s WALL (       8 calls)
     sum_band     :      1.43s CPU      1.52s WALL (       8 calls)
     v_of_rho     :      0.35s CPU      0.35s WALL (       8 calls)
     mix_rho      :      0.02s CPU      0.02s WALL (       8 calls)

     Called by c_bands:
     init_us_2    :      0.30s CPU      0.34s WALL (     190 calls)
     cegterg      :      5.74s CPU      6.27s WALL (      80 calls)

     Called by *egterg:
     h_psi        :      6.15s CPU      6.71s WALL (     249 calls)
     g_psi        :      0.01s CPU      0.01s WALL (     159 calls)
     cdiaghg      :      0.06s CPU      0.07s WALL (     229 calls)

     Called by h_psi:
     add_vuspsi   :      0.18s CPU      0.21s WALL (     249 calls)

     General routines
     calbec       :      0.22s CPU      0.25s WALL (     269 calls)
     fft          :      0.16s CPU      0.17s WALL (      97 calls)
     fftw         :      6.53s CPU      7.06s WALL (    5144 calls)
     davcio       :      0.00s CPU      0.00s WALL (      10 calls)

     Parallel routines
     fft_scatter  :      0.18s CPU      0.19s WALL (    5241 calls)

     PWSCF        :     9.84s CPU        10.62s WALL


   This run was terminated on:  17:13: 3  13Feb2023            

=------------------------------------------------------------------------------=
   JOB DONE.
=------------------------------------------------------------------------------=
