
     Program PWSCF v.5.1 starts on 13Feb2023 at 22: 5:28 

     This program is part of the open-source Quantum ESPRESSO suite
     for quantum simulation of materials; please cite
         "P. Giannozzi et al., J. Phys.:Condens. Matter 21 395502 (2009);
          URL http://www.quantum-espresso.org", 
     in publications or presentations arising from this work. More details at
     http://www.quantum-espresso.org/quote

     Parallel version (MPI), running on     1 processors
     Waiting for input...
     Reading input from standard input

     Current dimensions of program PWSCF are:
     Max number of different atomic species (ntypx) = 10
     Max number of k-points (npk) =  40000
     Max angular momentum in pseudopotentials (lmaxx) =  3

     Atomic positions and unit cell read from directory:
     ./out/Si.save/

               file Si.pbe-mt_fhi.UPF: wavefunction(s)  4f renormalized

     Subspace diagonalization in iterative solution of the eigenvalue problem:
     a serial algorithm will be used


     G-vector sticks info
     --------------------
     sticks:   dense  smooth     PW     G-vecs:    dense   smooth      PW
     Sum         733     733    211                12939    12939    2109



     bravais-lattice index     =            2
     lattice parameter (alat)  =      10.2623  a.u.
     unit-cell volume          =     270.1967 (a.u.)^3
     number of atoms/cell      =            2
     number of atomic types    =            1
     number of electrons       =        58.00
     number of Kohn-Sham states=           30
     kinetic-energy cutoff     =      50.0000  Ry
     charge density cutoff     =     200.0000  Ry
     Exchange-correlation      = PBE ( 1  4  3  4 0)

     celldm(1)=  10.262347  celldm(2)=   0.000000  celldm(3)=   0.000000
     celldm(4)=   0.000000  celldm(5)=   0.000000  celldm(6)=   0.000000

     crystal axes: (cart. coord. in units of alat)
               a(1) = (  -0.500000   0.000000   0.500000 )  
               a(2) = (   0.000000   0.500000   0.500000 )  
               a(3) = (  -0.500000   0.500000   0.000000 )  

     reciprocal axes: (cart. coord. in units 2 pi/alat)
               b(1) = ( -1.000000 -1.000000  1.000000 )  
               b(2) = (  1.000000  1.000000  1.000000 )  
               b(3) = ( -1.000000  1.000000 -1.000000 )  


     PseudoPot. # 1 for Si read from file:
     /home/acedemo/psudo/Si.pbe-mt_fhi.UPF
     MD5 check sum: 259057c2adf9952f9ced37ae3d9e311d
     Pseudo is Norm-conserving, Zval =  4.0
     Generated using FHI98PP, converted with fhi2upf.x v.5.0.2
     Using radial grid of  495 points,  3 beta functions with: 
                l(1) =   0
                l(2) =   1
                l(3) =   3

     atomic species   valence    mass     pseudopotential
        Si             4.00    28.08550     Si( 1.00)

     48 Sym. Ops., with inversion, found (24 have fractional translation)



   Cartesian axes

     site n.     atom                  positions (alat units)
         1           Si  tau(   1) = (   0.0000000   0.0000000   0.0000000  )
         2           Si  tau(   2) = (   0.2500000   0.2500000   0.2500000  )

     number of k points=    51  Marzari-Vanderbilt smearing, width (Ry)=  0.0500
                       cart. coord. in units 2pi/alat
        k(    1) = (   0.5000000   0.5000000   0.5000000), wk =   0.0000000
        k(    2) = (   0.4500000   0.4500000   0.4500000), wk =   0.0014779
        k(    3) = (   0.4000000   0.4000000   0.4000000), wk =   0.0029558
        k(    4) = (   0.3500000   0.3500000   0.3500000), wk =   0.0044337
        k(    5) = (   0.3000000   0.3000000   0.3000000), wk =   0.0059116
        k(    6) = (   0.2500000   0.2500000   0.2500000), wk =   0.0073895
        k(    7) = (   0.2000000   0.2000000   0.2000000), wk =   0.0088674
        k(    8) = (   0.1500000   0.1500000   0.1500000), wk =   0.0103453
        k(    9) = (   0.1000000   0.1000000   0.1000000), wk =   0.0118232
        k(   10) = (   0.0500000   0.0500000   0.0500000), wk =   0.0133011
        k(   11) = (   0.0000000   0.0000000   0.0000000), wk =   0.0147790
        k(   12) = (   0.0000000   0.1000000   0.0000000), wk =   0.0168691
        k(   13) = (   0.0000000   0.2000000   0.0000000), wk =   0.0189591
        k(   14) = (   0.0000000   0.3000000   0.0000000), wk =   0.0210492
        k(   15) = (   0.0000000   0.4000000   0.0000000), wk =   0.0231392
        k(   16) = (   0.0000000   0.5000000   0.0000000), wk =   0.0252293
        k(   17) = (   0.0000000   0.6000000   0.0000000), wk =   0.0273194
        k(   18) = (   0.0000000   0.7000000   0.0000000), wk =   0.0294094
        k(   19) = (   0.0000000   0.8000000   0.0000000), wk =   0.0314995
        k(   20) = (   0.0000000   0.9000000   0.0000000), wk =   0.0335896
        k(   21) = (   0.0000000   1.0000000   0.0000000), wk =   0.0356796
        k(   22) = (   0.0000000   0.9750000   0.0750000), wk =   0.0370621
        k(   23) = (   0.0000000   0.9500000   0.1500000), wk =   0.0384445
        k(   24) = (  -0.0000000   0.9250000   0.2250000), wk =   0.0398270
        k(   25) = (  -0.0000000   0.9000000   0.3000000), wk =   0.0412094
        k(   26) = (   0.0000000   0.8750000   0.3750000), wk =   0.0425919
        k(   27) = (   0.0000000   0.8500000   0.4500000), wk =   0.0439743
        k(   28) = (   0.0000000   0.8250000   0.5250000), wk =   0.0453568
        k(   29) = (  -0.0000000   0.8000000   0.6000000), wk =   0.0467392
        k(   30) = (  -0.0000000   0.7750000   0.6750000), wk =   0.0481217
        k(   31) = (   0.0000000   0.7500000   0.7500000), wk =   0.0495041
        k(   32) = (   0.0000000   0.7250000   0.7750000), wk =   0.0500266
        k(   33) = (   0.0000000   0.7000000   0.8000000), wk =   0.0505491
        k(   34) = (   0.0000000   0.6750000   0.8250000), wk =   0.0510717
        k(   35) = (   0.0000000   0.6500000   0.8500000), wk =   0.0515942
        k(   36) = (   0.0000000   0.6250000   0.8750000), wk =   0.0521167
        k(   37) = (   0.0000000   0.6000000   0.9000000), wk =   0.0526392
        k(   38) = (   0.0000000   0.5750000   0.9250000), wk =   0.0531617
        k(   39) = (   0.0000000   0.5500000   0.9500000), wk =   0.0536842
        k(   40) = (   0.0000000   0.5250000   0.9750000), wk =   0.0542067
        k(   41) = (   0.0000000   0.5000000   1.0000000), wk =   0.0547293
        k(   42) = (   0.0000000   0.4500000   0.9000000), wk =   0.0574942
        k(   43) = (  -0.0000000   0.4000000   0.8000000), wk =   0.0602591
        k(   44) = (  -0.0000000   0.3500000   0.7000000), wk =   0.0630239
        k(   45) = (  -0.0000000   0.3000000   0.6000000), wk =   0.0657888
        k(   46) = (   0.0000000   0.2500000   0.5000000), wk =   0.0685537
        k(   47) = (   0.0000000   0.2000000   0.4000000), wk =   0.0713186
        k(   48) = (   0.0000000   0.1500000   0.3000000), wk =   0.0740835
        k(   49) = (  -0.0000000   0.1000000   0.2000000), wk =   0.0768484
        k(   50) = (  -0.0000000   0.0500000   0.1000000), wk =   0.0796133
        k(   51) = (   0.0000000   0.0000000   0.0000000), wk =   0.0823782

     Dense  grid:    12939 G-vectors     FFT dimensions: (  36,  36,  36)

     Largest allocated arrays     est. size (Mb)     dimensions
        Kohn-Sham Wavefunctions         0.75 Mb     (    1639,   30)
        NL pseudopotentials             0.55 Mb     (    1639,   22)
        Each V/rho on FFT grid          0.71 Mb     (   46656)
        Each G-vector array             0.10 Mb     (   12939)
        G-vector shells                 0.00 Mb     (     180)
     Largest temporary arrays     est. size (Mb)     dimensions
        Auxiliary wavefunctions         3.00 Mb     (    1639,  120)
        Each subspace H/S matrix        0.22 Mb     (     120,  120)
        Each <psi_i|beta_j> matrix      0.01 Mb     (      22,   30)

     The potential is recalculated from file :
     ./out/Si.save/charge-density.dat

     Starting wfc are   32 randomized atomic wfcs

     Band Structure Calculation
     Davidson diagonalization with overlap

     ethr =  2.76E-12,  avg # of iterations = 21.3

     total cpu time spent up to now is       67.6 secs

     End of band structure calculation

          k = 0.5000 0.5000 0.5000 (  1622 PWs)   bands (ev):

    -9.3459  -8.8122  -0.6164  -0.6164   0.9753   0.9753   1.5673   2.3068
     9.5271   9.5271  10.1954  10.1954  10.3370  13.0375  18.4596  19.1893
    19.1893  19.6377  20.5187  20.5187  21.6552  22.7312  26.0815  26.0815
    28.4299  28.4299  29.6327  29.6327  30.3339  30.5618

          k = 0.4500 0.4500 0.4500 (  1610 PWs)   bands (ev):

    -9.8284  -8.2585  -0.6164  -0.6164   1.0435   1.0435   1.5310   2.4086
     8.6650   8.6650   9.9789  11.1301  11.1301  13.4191  17.3356  18.0953
    18.0953  19.7834  21.4762  21.6599  21.6599  23.9942  26.0244  26.0244
    28.2376  28.2376  29.8724  29.8724  30.1112  30.7127

          k = 0.4000 0.4000 0.4000 (  1616 PWs)   bands (ev):

   -10.4361  -7.4372  -0.6085  -0.6085   1.2393   1.2393   1.4687   2.6659
     7.6138   7.6138   9.2297  12.3986  12.3986  14.1143  15.8677  16.5914
    16.5914  18.4920  22.8473  23.2663  23.2663  25.7931  25.9170  25.9170
    27.8738  27.8738  29.6544  30.3873  30.3873  31.1279

          k = 0.3500 0.3500 0.3500 (  1610 PWs)   bands (ev):

   -10.9859  -6.5323  -0.5759  -0.5759   1.4347   1.5415   1.5415   3.0194
     6.6290   6.6290   8.3940  13.5477  13.7312  13.7312  15.1346  15.1346
    15.7947  17.0723  24.4319  24.5693  24.5693  26.1149  26.1149  27.5281
    27.5350  27.5350  29.1675  31.0182  31.0182  31.2427

          k = 0.3000 0.3000 0.3000 (  1615 PWs)   bands (ev):

   -11.4664  -5.5568  -0.5030  -0.5030   1.4498   1.9231   1.9231   3.4373
     5.7340   5.7340   7.5718  11.9718  13.6442  13.6442  15.2275  15.2275
    15.6786  16.8717  24.8227  24.8227  25.9647  26.8557  26.8557  27.7845
    27.7845  28.6941  28.7169  31.7157  31.7157  31.8476

          k = 0.2500 0.2500 0.2500 (  1618 PWs)   bands (ev):

   -11.8746  -4.5158  -0.3795  -0.3795   1.5183   2.3395   2.3395   3.8906
     4.9649   4.9649   6.8045  10.3467  12.3126  12.3126  14.4100  16.6968
    16.6968  18.0573  24.6649  24.6649  26.7048  26.7048  27.1733  28.3241
    29.2368  29.4340  29.4340  32.4303  32.4303  33.1696

          k = 0.2000 0.2000 0.2000 (  1606 PWs)   bands (ev):

   -12.2095  -3.4150  -0.1994  -0.1994   1.6354   2.6620   2.6620   4.3214
     4.4447   4.4447   6.1285   8.8022  11.0378  11.0378  13.2269  18.2358
    18.2358  19.2916  24.4715  24.4715  26.4700  26.4700  27.5101  27.9976
    30.2009  31.1971  31.1971  32.9261  32.9261  33.6999

          k = 0.1500 0.1500 0.1500 (  1600 PWs)   bands (ev):

   -12.4705  -2.2635   0.0396   0.0396   1.7826   2.5990   2.5990   4.4608
     4.4608   4.5641   5.5978   7.4877   9.8374   9.8374  12.1525  19.8108
    19.8108  20.5232  24.3161  24.3161  26.2693  26.2693  27.2072  27.7414
    31.3420  31.3420  31.5357  33.5413  33.5413  34.3248

          k = 0.1000 0.1000 0.1000 (  1606 PWs)   bands (ev):

   -12.6571  -1.0802   0.3357   0.3357   1.9041   2.1882   2.1882   4.4072
     4.9719   4.9719   5.0248   6.8504   8.7200   8.7200  11.2250  21.3622
    21.3622  21.6965  24.2472  24.2472  26.1058  26.1058  26.6636  27.5575
    29.7547  29.7547  32.5826  34.2963  34.6295  34.6295

          k = 0.0500 0.0500 0.0500 (  1630 PWs)   bands (ev):

   -12.7692   0.0840   0.6736   0.6736   1.7192   1.7192   1.8276   4.0884
     4.2577   5.6805   5.6805   6.9432   7.7094   7.7094  10.5346  22.6643
    22.6643  22.6900  24.4038  24.4038  25.9392  25.9392  26.0537  27.4467
    28.1862  28.1862  32.7455  34.9023  35.1530  35.1530

          k = 0.0000 0.0000 0.0000 (  1639 PWs)   bands (ev):

   -12.8066   0.9122   0.9122   0.9122   1.4307   1.4307   1.4307   3.9252
     3.9396   6.2272   6.2272   7.0682   7.0682   7.0682  10.2608  23.1509
    23.1509  23.1509  24.8098  24.8098  25.7223  25.7223  25.7223  27.4098
    27.4098  27.4098  32.6830  35.3321  35.3321  35.3321

          k = 0.0000 0.1000 0.0000 (  1627 PWs)   bands (ev):

   -12.7567   0.2694   0.2694   0.6655   1.1477   2.1472   2.1472   4.0662
     4.3114   5.1990   6.2774   7.1371   7.1371   8.0186  10.6702  22.3801
    22.3801  23.1963  23.8268  24.2035  26.0900  26.0900  26.1330  27.9327
    27.9327  28.4519  32.7721  34.8084  34.8084  35.2895

          k = 0.0000 0.2000 0.0000 (  1599 PWs)   bands (ev):

   -12.6073  -0.4964  -0.4964   0.1049   0.5653   3.1283   3.1283   3.1504
     5.1594   5.3221   6.4280   7.3495   7.3495   8.7749  11.9439  20.9620
    20.9620  22.2040  23.1765  23.3325  26.4491  26.4491  26.5911  29.3397
    29.3397  30.2311  32.7776  33.4324  33.4324  34.3583

          k = 0.0000 0.3000 0.0000 (  1607 PWs)   bands (ev):

   -12.3585  -1.1876  -1.1876  -0.5719  -0.0579   1.6923   4.1570   4.1570
     6.2222   6.2944   6.6788   7.7244   7.7244   9.2337  13.7714  19.4581
    19.4581  20.5507  22.0481  23.5591  26.7347  26.7347  26.7811  30.8555
    30.8555  31.8178  31.8178  32.0470  32.1049  32.2055

          k = 0.0000 0.4000 0.0000 (  1607 PWs)   bands (ev):

   -12.0106  -1.7922  -1.7922  -1.3384  -0.6364   0.3631   5.1856   5.1856
     7.0300   7.4085   7.4627   8.2964   8.2964   9.6510  15.8459  17.9852
    17.9852  18.9539  20.8970  23.8748  26.4972  27.0577  27.0577  29.2356
    29.2356  30.0112  31.0270  33.0530  33.2443  33.2443

          k = 0.0000 0.5000 0.0000 (  1612 PWs)   bands (ev):

   -11.5640  -2.3067  -2.3067  -2.2869  -1.1416  -0.6549   6.1657   6.1657
     7.4813   8.6779   8.7466   9.1080   9.1080  10.1163  16.5779  16.5779
    17.4362  18.0550  19.7726  24.2743  25.5088  27.0270  27.0270  27.4497
    27.4497  27.8561  30.3422  32.3298  34.3023  35.0029

          k = 0.0000 0.6000 0.0000 (  1620 PWs)   bands (ev):

   -11.0195  -3.4250  -2.7292  -2.7292  -1.5616  -1.3241   7.0734   7.0734
     8.0326   9.9935  10.0824  10.1753  10.1753  10.6901  15.2532  15.2532
    16.0065  18.7222  20.3462  23.9687  24.6784  24.8156  24.8156  25.8638
    27.9105  27.9105  29.9811  31.8319  34.3837  34.3837

          k = 0.0000 0.7000 0.0000 (  1632 PWs)   bands (ev):

   -10.3778  -4.6182  -3.0586  -3.0586  -1.8903  -1.7649   7.9317   7.9317
     8.6838  11.0715  11.2895  11.4472  11.4472  11.7571  14.0405  14.0405
    14.6694  17.8169  22.2044  22.6522  22.6539  22.6539  23.5741  25.6118
    28.4438  28.4438  29.4747  31.7564  33.4485  33.4485

          k = 0.0000 0.8000 0.0000 (  1624 PWs)   bands (ev):

    -9.6401  -5.7786  -3.2942  -3.2942  -2.1240  -2.0573   8.7860   8.7860
     9.4347  11.7353  12.4034  12.4034  12.4034  13.2680  13.4089  13.4089
    13.4274  17.2099  20.4061  20.5744  20.5744  21.7125  24.7501  26.5691
    28.7487  29.0359  29.0359  31.9565  32.5463  32.5463

          k = 0.0000 0.9000 0.0000 (  1608 PWs)   bands (ev):

    -8.8081  -6.8720  -3.4358  -3.4358  -2.2604  -2.2310   9.6721   9.6721
    10.2850  11.5951  11.5951  12.2820  12.3617  12.9906  14.7426  14.7426
    14.8739  17.1303  18.6186  18.6186  18.7664  19.9881  26.1393  27.9320
    28.3368  29.6394  29.6394  31.7491  31.7491  31.8349

          k = 0.0000 1.0000 0.0000 (  1604 PWs)   bands (ev):

    -7.8841  -7.8841  -3.4830  -3.4830  -2.2970  -2.2970  10.5905  10.5905
    10.6289  10.6289  11.2343  11.2343  12.8706  12.8706  15.9853  15.9853
    16.4569  16.4569  17.2416  17.2416  18.6220  18.6220  27.0795  27.0795
    29.9926  29.9926  30.4371  30.4371  31.3301  31.3301

          k = 0.0000 0.9750 0.0750 (  1618 PWs)   bands (ev):

    -8.0971  -7.6132  -3.7955  -3.7933  -1.9292  -1.9239   9.5180   9.9910
    10.3872  10.8676  11.5259  11.9940  13.0858  13.3046  15.2820  15.5757
    16.6565  16.6992  17.3141  17.6750  18.6702  19.1317  26.4699  26.8870
    29.6654  29.8897  30.1542  30.5379  31.5454  31.9715

          k = 0.0000 0.9500 0.1500 (  1622 PWs)   bands (ev):

    -8.2513  -7.2870  -4.3351  -4.3250  -1.2174  -1.2102   8.1147   9.0468
    10.1954  11.1493  11.6684  12.4239  13.5796  14.2194  14.5523  15.1037
    16.5996  16.9813  17.5054  18.4086  19.3770  19.9977  25.3858  26.1825
    28.8723  28.9663  30.0753  30.9718  31.9584  32.1267

          k =-0.0000 0.9250 0.2250 (  1622 PWs)   bands (ev):

    -8.3461  -6.9122  -4.8726  -4.8441  -0.3922  -0.3859   6.7043   8.0917
    10.0234  11.3824  11.7567  12.5402  13.0827  14.3752  15.0151  15.4492
    16.7679  17.1638  17.9955  19.0215  20.5698  21.0164  24.1358  25.3119
    27.8460  28.1394  29.5144  30.1044  30.5042  31.9586

          k =-0.0000 0.9000 0.3000 (  1623 PWs)   bands (ev):

    -8.3819  -6.5155  -5.3666  -5.2843   0.5007   0.5026   5.3307   7.1682
     9.8459  11.3729  11.9512  12.3623  12.4237  14.3467  15.7683  15.7821
    17.3775  17.4479  18.7449  19.7604  21.9226  22.0632  22.8416  24.4193
    26.7187  27.4456  28.3340  28.5478  29.5484  32.3139

          k = 0.0000 0.8750 0.3750 (  1614 PWs)   bands (ev):

    -8.3593  -6.2509  -5.8055  -5.4817   1.4041   1.4499   4.0425   6.2956
     9.6212  10.9231  11.8707  12.0241  12.5767  14.6039  15.8573  16.3679
    17.7442  18.2263  19.7313  20.6127  21.5459  22.9978  23.0096  23.8951
    25.6709  26.4495  27.1427  27.3000  29.0187  32.3382

          k = 0.0000 0.8500 0.4500 (  1612 PWs)   bands (ev):

    -8.2800  -6.3945  -6.1836  -5.1580   1.9671   2.4269   3.1999   5.4971
     9.3021  10.1914  11.7490  11.9010  13.0389  15.0147  15.9325  16.7671
    18.2480  18.8650  20.2548  20.9559  21.1983  22.4745  23.4554  24.6506
    25.1288  25.2288  26.2417  27.0682  28.6861  32.1015

          k = 0.0000 0.8250 0.5250 (  1611 PWs)   bands (ev):

    -8.1476  -6.6685  -6.4954  -4.5925   1.1654   3.3340   3.8302   4.8699
     8.8768   9.4437  11.6377  12.0291  13.5655  15.4641  16.0682  17.0930
    18.6872  19.1643  19.2977  20.9355  21.7783  22.2564  22.8167  24.1181
    24.3936  25.7845  27.1714  27.2529  28.7133  31.7242

          k =-0.0000 0.8000 0.6000 (  1614 PWs)   bands (ev):

    -7.9707  -6.9206  -6.7312  -3.9461   0.0441   3.5447   4.8914   5.0327
     8.3858   8.7422  11.6909  12.2199  14.1276  15.7796  16.3742  17.3961
    17.7923  19.2931  19.4484  20.0747  21.3411  21.4836  23.5110  23.5863
    24.1566  26.6792  27.3315  28.9367  29.3948  31.2116

          k =-0.0000 0.7750 0.6750 (  1621 PWs)   bands (ev):

    -7.7727  -7.1246  -6.8675  -3.2817  -1.0176   3.0388   5.9773   6.0138
     7.8994   8.1271  11.8790  12.4616  14.6860  15.8638  16.6434  16.7762
    17.7551  18.7437  19.1525  19.6491  20.5486  21.3311  23.0951  23.4711
    25.3609  27.2827  27.8187  30.4523  30.5029  30.8304

          k = 0.0000 0.7500 0.7500 (  1624 PWs)   bands (ev):

    -7.6097  -7.2743  -6.8479  -2.9021  -1.6891   2.4634   6.8074   6.8894
     7.6911   7.8736  12.1801  12.7381  14.9400  15.6699  15.9055  16.7069
    17.7797  18.3907  18.5482  19.0303  20.8022  21.2829  23.0812  23.1252
    26.6429  27.4836  28.5437  30.0517  31.1804  31.8746

          k = 0.0000 0.7250 0.7750 (  1616 PWs)   bands (ev):

    -7.6037  -7.2688  -6.8418  -3.0623  -1.5178   2.4677   6.6393   6.7104
     7.8632   8.0630  12.1914  12.7386  14.7806  15.6039  16.0766  16.6438
    17.6431  18.3376  18.7377  19.1785  20.8080  21.2956  23.0756  23.1219
    26.4754  27.6542  28.3452  30.2088  30.8814  31.7518

          k = 0.0000 0.7000 0.8000 (  1621 PWs)   bands (ev):

    -7.5854  -7.2524  -6.8235  -3.4053  -1.1418   2.4805   6.3044   6.3527
     8.2096   8.4516  12.2255  12.7392  14.4599  15.4268  16.4272  16.4623
    17.3498  18.3886  19.0661  19.5108  20.8275  21.3343  23.0568  23.1111
    26.1462  27.9128  27.9885  30.3153  30.4737  31.0061

          k = 0.0000 0.6750 0.8250 (  1620 PWs)   bands (ev):

    -7.5551  -7.2252  -6.7930  -3.8011  -0.6909   2.5013   5.9317   5.9550
     8.6001   8.9000  12.2828  12.7360  14.1099  15.1789  16.1961  16.7351
    17.1094  18.5587  19.4411  19.9017  20.8693  21.4005  23.0183  23.0902
    25.7842  27.4214  28.3335  29.7193  29.9916  30.9181

          k = 0.0000 0.6500 0.8500 (  1616 PWs)   bands (ev):

    -7.5126  -7.1878  -6.7502  -4.2082  -0.2071   2.5289   5.5528   5.5544
     8.9995   9.3712  12.3635  12.7205  13.7748  14.8928  15.8873  16.5319
    17.3985  18.7984  19.8321  20.2754  20.9651  21.4961  22.9507  23.0543
    25.4228  26.9495  28.5004  29.1139  29.3112  31.1401

          k = 0.0000 0.6250 0.8750 (  1616 PWs)   bands (ev):

    -7.4580  -7.1411  -6.6953  -4.6124   0.2952   2.5616   5.1574   5.1842
     9.3933   9.8506  12.4665  12.6741  13.4862  14.5894  15.5661  16.1847
    17.8548  19.0705  20.2169  20.5342  21.1916  21.6173  22.8486  22.9975
    25.0760  26.5439  28.1541  28.2172  29.4432  31.3090

          k = 0.0000 0.6000 0.9000 (  1613 PWs)   bands (ev):

    -7.3913  -7.0867  -6.6282  -5.0067   0.8080   2.5960   4.7753   4.8284
     9.7720  10.3234  12.5708  12.5869  13.2821  14.2830  15.2538  15.8387
    18.3367  19.3524  20.5754  20.6485  21.5583  21.7316  22.7388  22.9167
    24.7546  26.2392  27.3224  27.6318  29.7912  31.4222

          k = 0.0000 0.5750 0.9250 (  1615 PWs)   bands (ev):

    -7.3125  -7.0283  -6.5489  -5.3851   1.3234   2.6262   4.4137   4.4952
    10.1272  10.7592  12.4235  12.7101  13.1754  13.9861  14.9732  15.5116
    18.8291  19.6286  20.6917  20.8901  21.7245  21.9417  22.7404  22.8387
    24.4698  26.0542  26.4367  27.1356  30.1652  31.4835

          k = 0.0000 0.5500 0.9500 (  1615 PWs)   bands (ev):

    -7.2216  -6.9743  -6.4575  -5.7376   1.8263   2.6411   4.0873   4.1968
    10.4514  11.0751  12.3415  12.8008  13.1325  13.7122  14.7596  15.2141
    19.3218  19.8855  20.7007  21.1270  21.5274  22.1262  22.9237  22.9634
    24.2313  25.5561  25.9964  26.7127  30.5289  31.4841

          k = 0.0000 0.5250 0.9750 (  1615 PWs)   bands (ev):

    -7.1188  -6.9478  -6.3540  -6.0406   2.2743   2.6218   3.8379   3.9532
    10.7383  11.1381  12.4705  12.8027  13.1307  13.4702  14.6706  14.9576
    19.7909  20.0972  20.6893  21.0017  21.5293  21.9898  23.2780  23.3341
    24.0504  24.7021  26.0379  26.3854  30.8687  31.3962

          k = 0.0000 0.5000 1.0000 (  1628 PWs)   bands (ev):

    -7.0039  -7.0039  -6.2384  -6.2384   2.5427   2.5427   3.7901   3.7901
    10.9811  10.9811  12.6937  12.6937  13.2415  13.2415  14.7550  14.7550
    20.1294  20.1294  20.7224  20.7224  21.7476  21.7476  23.6301  23.6301
    24.0168  24.0168  26.1657  26.1657  31.1784  31.1784

          k = 0.0000 0.4500 0.9000 (  1616 PWs)   bands (ev):

    -7.8731  -6.5314  -6.2231  -5.6225   2.0974   2.3516   3.4195   5.0118
     9.8939  10.9231  12.2416  12.2486  12.6038  14.6874  15.0113  16.0569
    18.7242  19.4483  20.5918  20.9987  21.4947  22.1270  22.8929  24.3612
    24.7826  24.9629  26.0632  26.9527  29.3787  31.9830

          k =-0.0000 0.4000 0.8000 (  1616 PWs)   bands (ev):

    -8.8715  -6.0335  -5.8437  -4.7978   1.7004   1.8816   3.2263   6.6723
     8.7872   9.6542  11.2153  11.3548  13.4221  15.1663  16.4831  17.0162
    17.8386  18.1081  19.6346  20.6627  21.2180  23.4500  24.0745  24.7578
    25.7314  25.8447  26.7009  27.0760  28.9386  32.3840

          k =-0.0000 0.3500 0.7000 (  1618 PWs)   bands (ev):

    -9.7805  -5.4563  -5.3171  -3.8257   1.3795   1.4820   3.1877   7.3597
     8.3545   8.7154  10.3423  10.4742  14.4283  14.7002  14.7155  16.8923
    17.1017  19.5042  20.6995  20.8175  21.4254  23.3653  24.4761  25.4059
    25.8229  26.9925  27.8858  28.5401  30.3078  32.4430

          k =-0.0000 0.3000 0.6000 (  1609 PWs)   bands (ev):

   -10.5771  -4.7788  -4.6661  -2.7411   1.1635   1.1875   3.2787   6.4062
     7.1495   8.9769   9.6694  11.0541  12.8078  12.9836  15.0848  15.8326
    17.6702  20.4493  21.4127  21.6398  21.7523  23.1076  24.9978  26.7786
    27.2392  28.3950  29.3997  30.1461  31.8599  31.9323

          k = 0.0000 0.2500 0.5000 (  1610 PWs)   bands (ev):

   -11.2552  -3.9959  -3.8987  -1.5853   1.0054   1.0914   3.4673   5.4166
     6.0757   8.2880   8.9299  10.9905  11.0774  13.1122  13.6436  16.8644
    18.3522  18.7532  21.3656  21.9939  23.5805  25.5968  25.8987  28.1787
    28.8152  29.7970  30.4260  31.2053  31.4441  31.7763

          k = 0.0000 0.2000 0.4000 (  1613 PWs)   bands (ev):

   -11.8123  -3.1089  -3.0217  -0.4782   0.9369   1.2757   3.6652   4.4893
     5.2117   7.5755   8.1608   9.3925   9.3964  12.1631  15.2919  16.0737
    18.1656  19.9624  21.6893  22.4006  24.6229  27.5832  28.1412  28.8256
    29.4417  30.4819  30.7152  31.5755  32.8402  32.9611

          k = 0.0000 0.1500 0.3000 (  1607 PWs)   bands (ev):

   -12.2467  -2.1248  -2.0456   0.2622   0.9790   2.0110   3.5393   3.6372
     4.8609   6.6978   7.0837   8.1066   8.3610  10.7966  13.9400  17.5806
    19.5596  21.2546  22.1060  22.8962  25.2348  27.9054  28.2345  29.6354
    30.6441  30.9208  31.4784  32.3104  32.6902  33.2444

          k =-0.0000 0.1000 0.2000 (  1600 PWs)   bands (ev):

   -12.5575  -1.0601  -0.9911   0.6121   1.1202   2.8526   2.8781   3.3234
     4.9998   5.5075   5.9955   7.4478   7.7863   9.5130  12.0754  19.9059
    21.0073  22.5638  22.5943  23.4819  25.6915  27.0538  27.1933  29.0594
    29.4812  30.9671  32.4310  33.0978  33.8495  34.1946

          k =-0.0000 0.0500 0.1000 (  1623 PWs)   bands (ev):

   -12.7443   0.0443   0.0916   0.8252   1.3175   2.0914   2.1532   4.1344
     4.4146   5.1588   5.9567   7.1556   7.3402   8.2019  10.7405  22.0708
    22.3908  22.9716  23.9098  24.1743  25.9087  26.2317  26.2675  27.9286
    28.0105  28.7855  32.7761  34.6979  34.7620  35.2419

          k = 0.0000 0.0000 0.0000 (  1639 PWs)   bands (ev):

   -12.8066   0.9122   0.9122   0.9122   1.4307   1.4307   1.4307   3.9252
     3.9396   6.2272   6.2272   7.0682   7.0682   7.0682  10.2608  23.1509
    23.1509  23.1509  24.8098  24.8098  25.7223  25.7223  25.7223  27.4098
    27.4098  27.4098  32.6830  35.3321  35.3321  35.3321

     Writing output data file Si.save

     init_run     :      0.14s CPU      0.15s WALL (       1 calls)
     electrons    :     64.49s CPU     66.38s WALL (       1 calls)

     Called by init_run:
     wfcinit      :      0.00s CPU      0.00s WALL (       1 calls)
     potinit      :      0.05s CPU      0.05s WALL (       1 calls)

     Called by electrons:
     c_bands      :     64.49s CPU     66.38s WALL (       1 calls)
     v_of_rho     :      0.04s CPU      0.04s WALL (       1 calls)

     Called by c_bands:
     init_us_2    :      0.06s CPU      0.07s WALL (      51 calls)
     cegterg      :     60.20s CPU     61.97s WALL (      74 calls)

     Called by *egterg:
     h_psi        :     41.66s CPU     42.93s WALL (    1211 calls)
     g_psi        :      0.12s CPU      0.12s WALL (    1086 calls)
     cdiaghg      :      3.90s CPU      3.97s WALL (    1137 calls)

     Called by h_psi:
     add_vuspsi   :      1.17s CPU      1.19s WALL (    1211 calls)

     General routines
     calbec       :      1.30s CPU      1.33s WALL (    1211 calls)
     fft          :      0.02s CPU      0.02s WALL (      10 calls)
     fftw         :     37.03s CPU     38.19s WALL (   40494 calls)
     davcio       :      0.00s CPU      0.01s WALL (      51 calls)

     Parallel routines
     fft_scatter  :      0.91s CPU      0.94s WALL (   40504 calls)

     PWSCF        :  1m 5.62s CPU     1m 7.69s WALL


   This run was terminated on:  22: 6:35  13Feb2023            

=------------------------------------------------------------------------------=
   JOB DONE.
=------------------------------------------------------------------------------=
