
     Program PWSCF v.5.1 starts on 13Feb2023 at 22: 3:47 

     This program is part of the open-source Quantum ESPRESSO suite
     for quantum simulation of materials; please cite
         "P. Giannozzi et al., J. Phys.:Condens. Matter 21 395502 (2009);
          URL http://www.quantum-espresso.org", 
     in publications or presentations arising from this work. More details at
     http://www.quantum-espresso.org/quote

     Parallel version (MPI), running on     1 processors
     Waiting for input...
     Reading input from standard input

     Current dimensions of program PWSCF are:
     Max number of different atomic species (ntypx) = 10
     Max number of k-points (npk) =  40000
     Max angular momentum in pseudopotentials (lmaxx) =  3

     Atomic positions and unit cell read from directory:
     ./out/Si.save/

               file Si.pbe-mt_fhi.UPF: wavefunction(s)  4f renormalized

     Subspace diagonalization in iterative solution of the eigenvalue problem:
     a serial algorithm will be used


     G-vector sticks info
     --------------------
     sticks:   dense  smooth     PW     G-vecs:    dense   smooth      PW
     Sum         733     733    223                12939    12939    2229



     bravais-lattice index     =            2
     lattice parameter (alat)  =      10.2623  a.u.
     unit-cell volume          =     270.1967 (a.u.)^3
     number of atoms/cell      =            2
     number of atomic types    =            1
     number of electrons       =        58.00
     number of Kohn-Sham states=           30
     kinetic-energy cutoff     =      50.0000  Ry
     charge density cutoff     =     200.0000  Ry
     Exchange-correlation      = PBE ( 1  4  3  4 0)

     celldm(1)=  10.262347  celldm(2)=   0.000000  celldm(3)=   0.000000
     celldm(4)=   0.000000  celldm(5)=   0.000000  celldm(6)=   0.000000

     crystal axes: (cart. coord. in units of alat)
               a(1) = (  -0.500000   0.000000   0.500000 )  
               a(2) = (   0.000000   0.500000   0.500000 )  
               a(3) = (  -0.500000   0.500000   0.000000 )  

     reciprocal axes: (cart. coord. in units 2 pi/alat)
               b(1) = ( -1.000000 -1.000000  1.000000 )  
               b(2) = (  1.000000  1.000000  1.000000 )  
               b(3) = ( -1.000000  1.000000 -1.000000 )  


     PseudoPot. # 1 for Si read from file:
     /home/acedemo/psudo/Si.pbe-mt_fhi.UPF
     MD5 check sum: 259057c2adf9952f9ced37ae3d9e311d
     Pseudo is Norm-conserving, Zval =  4.0
     Generated using FHI98PP, converted with fhi2upf.x v.5.0.2
     Using radial grid of  495 points,  3 beta functions with: 
                l(1) =   0
                l(2) =   1
                l(3) =   3

     atomic species   valence    mass     pseudopotential
        Si             4.00    28.08550     Si( 1.00)

     48 Sym. Ops., with inversion, found (24 have fractional translation)



   Cartesian axes

     site n.     atom                  positions (alat units)
         1           Si  tau(   1) = (   0.0000000   0.0000000   0.0000000  )
         2           Si  tau(   2) = (   0.2500000   0.2500000   0.2500000  )

     number of k points=    72 (tetrahedron method)
                       cart. coord. in units 2pi/alat
        k(    1) = (   0.0000000   0.0000000   0.0000000), wk =   0.0011574
        k(    2) = (  -0.0833333   0.0833333  -0.0833333), wk =   0.0092593
        k(    3) = (  -0.1666667   0.1666667  -0.1666667), wk =   0.0092593
        k(    4) = (  -0.2500000   0.2500000  -0.2500000), wk =   0.0092593
        k(    5) = (  -0.3333333   0.3333333  -0.3333333), wk =   0.0092593
        k(    6) = (  -0.4166667   0.4166667  -0.4166667), wk =   0.0092593
        k(    7) = (   0.5000000  -0.5000000   0.5000000), wk =   0.0046296
        k(    8) = (   0.0000000   0.1666667   0.0000000), wk =   0.0069444
        k(    9) = (  -0.0833333   0.2500000  -0.0833333), wk =   0.0277778
        k(   10) = (  -0.1666667   0.3333333  -0.1666667), wk =   0.0277778
        k(   11) = (  -0.2500000   0.4166667  -0.2500000), wk =   0.0277778
        k(   12) = (  -0.3333333   0.5000000  -0.3333333), wk =   0.0277778
        k(   13) = (   0.5833333  -0.4166667   0.5833333), wk =   0.0277778
        k(   14) = (   0.5000000  -0.3333333   0.5000000), wk =   0.0277778
        k(   15) = (   0.4166667  -0.2500000   0.4166667), wk =   0.0277778
        k(   16) = (   0.3333333  -0.1666667   0.3333333), wk =   0.0277778
        k(   17) = (   0.2500000  -0.0833333   0.2500000), wk =   0.0277778
        k(   18) = (   0.1666667  -0.0000000   0.1666667), wk =   0.0138889
        k(   19) = (   0.0000000   0.3333333   0.0000000), wk =   0.0069444
        k(   20) = (  -0.0833333   0.4166667  -0.0833333), wk =   0.0277778
        k(   21) = (  -0.1666667   0.5000000  -0.1666667), wk =   0.0277778
        k(   22) = (  -0.2500000   0.5833333  -0.2500000), wk =   0.0277778
        k(   23) = (   0.6666667  -0.3333333   0.6666667), wk =   0.0277778
        k(   24) = (   0.5833333  -0.2500000   0.5833333), wk =   0.0277778
        k(   25) = (   0.5000000  -0.1666667   0.5000000), wk =   0.0277778
        k(   26) = (   0.4166667  -0.0833333   0.4166667), wk =   0.0277778
        k(   27) = (   0.3333333   0.0000000   0.3333333), wk =   0.0138889
        k(   28) = (   0.0000000   0.5000000   0.0000000), wk =   0.0069444
        k(   29) = (  -0.0833333   0.5833333  -0.0833333), wk =   0.0277778
        k(   30) = (  -0.1666667   0.6666667  -0.1666667), wk =   0.0277778
        k(   31) = (   0.7500000  -0.2500000   0.7500000), wk =   0.0277778
        k(   32) = (   0.6666667  -0.1666667   0.6666667), wk =   0.0277778
        k(   33) = (   0.5833333  -0.0833333   0.5833333), wk =   0.0277778
        k(   34) = (   0.5000000   0.0000000   0.5000000), wk =   0.0138889
        k(   35) = (   0.0000000   0.6666667   0.0000000), wk =   0.0069444
        k(   36) = (  -0.0833333   0.7500000  -0.0833333), wk =   0.0277778
        k(   37) = (   0.8333333  -0.1666667   0.8333333), wk =   0.0277778
        k(   38) = (   0.7500000  -0.0833333   0.7500000), wk =   0.0277778
        k(   39) = (   0.6666667   0.0000000   0.6666667), wk =   0.0138889
        k(   40) = (   0.0000000   0.8333333   0.0000000), wk =   0.0069444
        k(   41) = (   0.9166667  -0.0833333   0.9166667), wk =   0.0277778
        k(   42) = (   0.8333333   0.0000000   0.8333333), wk =   0.0138889
        k(   43) = (   0.0000000  -1.0000000   0.0000000), wk =   0.0034722
        k(   44) = (  -0.1666667   0.3333333   0.0000000), wk =   0.0277778
        k(   45) = (  -0.2500000   0.4166667  -0.0833333), wk =   0.0555556
        k(   46) = (  -0.3333333   0.5000000  -0.1666667), wk =   0.0555556
        k(   47) = (   0.5833333  -0.4166667   0.7500000), wk =   0.0555556
        k(   48) = (   0.5000000  -0.3333333   0.6666667), wk =   0.0277778
        k(   49) = (  -0.1666667   0.5000000   0.0000000), wk =   0.0277778
        k(   50) = (  -0.2500000   0.5833333  -0.0833333), wk =   0.0555556
        k(   51) = (   0.6666667  -0.3333333   0.8333333), wk =   0.0555556
        k(   52) = (   0.5833333  -0.2500000   0.7500000), wk =   0.0555556
        k(   53) = (   0.5000000  -0.1666667   0.6666667), wk =   0.0555556
        k(   54) = (   0.4166667  -0.0833333   0.5833333), wk =   0.0555556
        k(   55) = (   0.3333333   0.0000000   0.5000000), wk =   0.0277778
        k(   56) = (  -0.1666667   0.6666667  -0.0000000), wk =   0.0277778
        k(   57) = (   0.7500000  -0.2500000   0.9166667), wk =   0.0555556
        k(   58) = (   0.6666667  -0.1666667   0.8333333), wk =   0.0555556
        k(   59) = (   0.5833333  -0.0833333   0.7500000), wk =   0.0555556
        k(   60) = (   0.5000000   0.0000000   0.6666667), wk =   0.0277778
        k(   61) = (   0.8333333  -0.1666667   1.0000000), wk =   0.0277778
        k(   62) = (   0.7500000  -0.0833333   0.9166667), wk =   0.0555556
        k(   63) = (   0.6666667   0.0000000   0.8333333), wk =   0.0277778
        k(   64) = (  -0.1666667  -1.0000000   0.0000000), wk =   0.0138889
        k(   65) = (   0.6666667  -0.3333333   1.0000000), wk =   0.0277778
        k(   66) = (   0.5833333  -0.2500000   0.9166667), wk =   0.0555556
        k(   67) = (   0.5000000  -0.1666667   0.8333333), wk =   0.0277778
        k(   68) = (   0.6666667  -0.1666667   1.0000000), wk =   0.0277778
        k(   69) = (   0.5833333  -0.0833333   0.9166667), wk =   0.0555556
        k(   70) = (   0.5000000   0.0000000   0.8333333), wk =   0.0277778
        k(   71) = (  -0.3333333  -1.0000000   0.0000000), wk =   0.0138889
        k(   72) = (  -0.5000000  -1.0000000   0.0000000), wk =   0.0069444

     Dense  grid:    12939 G-vectors     FFT dimensions: (  36,  36,  36)

     Largest allocated arrays     est. size (Mb)     dimensions
        Kohn-Sham Wavefunctions         0.75 Mb     (    1639,   30)
        NL pseudopotentials             0.55 Mb     (    1639,   22)
        Each V/rho on FFT grid          0.71 Mb     (   46656)
        Each G-vector array             0.10 Mb     (   12939)
        G-vector shells                 0.00 Mb     (     180)
     Largest temporary arrays     est. size (Mb)     dimensions
        Auxiliary wavefunctions         3.00 Mb     (    1639,  120)
        Each subspace H/S matrix        0.22 Mb     (     120,  120)
        Each <psi_i|beta_j> matrix      0.01 Mb     (      22,   30)

     The potential is recalculated from file :
     ./out/Si.save/charge-density.dat

     Starting wfc are   32 randomized atomic wfcs

     Band Structure Calculation
     Davidson diagonalization with overlap

     ethr =  2.76E-12,  avg # of iterations = 21.7

     Warning: ef = 31.602324 is above the highest band at k-point   5
              e  =  31.321687

     Warning: ef = 31.602324 is above the highest band at k-point   6
              e  =  30.964765

     Warning: ef = 31.602324 is above the highest band at k-point   7
              e  =  30.561816

     Warning: ef = 31.602324 is above the highest band at k-point  12
              e  =  31.325896

     Warning: ef = 31.602324 is above the highest band at k-point  13
              e  =  30.944293

     Warning: ef = 31.602324 is above the highest band at k-point  14
              e  =  31.288536

     Warning: ef = 31.602324 is above the highest band at k-point  23
              e  =  31.116318

     Warning: ef = 31.602324 is above the highest band at k-point  24
              e  =  30.845857

     Warning: ef = 31.602324 is above the highest band at k-point  32
              e  =  31.189613

     Warning: ef = 31.602324 is above the highest band at k-point  42
              e  =  31.574656

     Warning: ef = 31.602324 is above the highest band at k-point  43
              e  =  31.330095

     Warning: ef = 31.602324 is above the highest band at k-point  51
              e  =  31.340289

     Warning: ef = 31.602324 is above the highest band at k-point  52
              e  =  31.483057

     Warning: ef = 31.602324 is above the highest band at k-point  53
              e  =  31.402289

     Warning: ef = 31.602324 is above the highest band at k-point  58
              e  =  31.196902

     Warning: ef = 31.602324 is above the highest band at k-point  59
              e  =  30.974963

     Warning: ef = 31.602324 is above the highest band at k-point  60
              e  =  30.934432

     Warning: ef = 31.602324 is above the highest band at k-point  62
              e  =  31.534672

     Warning: ef = 31.602324 is above the highest band at k-point  63
              e  =  30.995485

     Warning: ef = 31.602324 is above the highest band at k-point  66
              e  =  31.144582

     Warning: ef = 31.602324 is above the highest band at k-point  67
              e  =  30.224528

     Warning: ef = 31.602324 is above the highest band at k-point  69
              e  =  31.036522

     Warning: ef = 31.602324 is above the highest band at k-point  71
              e  =  31.055422

     Warning: ef = 31.602324 is above the highest band at k-point  72
              e  =  31.178384

     total cpu time spent up to now is       88.4 secs

     End of band structure calculation

          k = 0.0000 0.0000 0.0000 (  1639 PWs)   bands (ev):

   -12.8066   0.9122   0.9122   0.9122   1.4307   1.4307   1.4307   3.9252
     3.9396   6.2272   6.2272   7.0682   7.0682   7.0682  10.2608  23.1509
    23.1509  23.1509  24.8098  24.8098  25.7223  25.7223  25.7223  27.4098
    27.4098  27.4098  32.6830  35.3321  35.3321  35.3321

          k =-0.0833 0.0833-0.0833 (  1612 PWs)   bands (ev):

   -12.7028  -0.6855   0.4454   0.4454   1.9150   2.0290   2.0290   4.3003
     4.7599   5.1962   5.1962   6.8375   8.3687   8.3687  10.9615  21.8463
    21.8463  22.0578  24.2610  24.2610  26.0551  26.0551  26.4578  27.5124
    29.2006  29.2006  32.7224  34.4285  34.8439  34.8439

          k =-0.1667 0.1667-0.1667 (  1591 PWs)   bands (ev):

   -12.3917  -2.6521  -0.0466  -0.0466   1.7324   2.6746   2.6746   4.3843
     4.3843   4.5220   5.7572   7.8815  10.2288  10.2288  12.4968  19.2841
    19.2841  20.1158  24.3612  24.3612  26.3316  26.3316  27.3459  27.8189
    31.0882  31.6657  31.6657  33.1299  33.1299  34.0661

          k =-0.2500 0.2500-0.2500 (  1618 PWs)   bands (ev):

   -11.8746  -4.5158  -0.3795  -0.3795   1.5183   2.3395   2.3395   3.8906
     4.9649   4.9649   6.8045  10.3467  12.3126  12.3126  14.4100  16.6968
    16.6968  18.0573  24.6649  24.6649  26.7048  26.7048  27.1733  28.3241
    29.2368  29.4340  29.4340  32.4303  32.4303  33.1696

          k =-0.3333 0.3333-0.3333 (  1616 PWs)   bands (ev):

   -11.1540  -6.2147  -0.5567  -0.5567   1.4338   1.6614   1.6614   3.1528
     6.3196   6.3196   8.1159  13.0463  14.1326  14.1326  14.7204  14.7204
    16.0878  16.6302  24.7601  24.7601  24.9560  26.3944  26.3944  27.4686
    27.4686  28.0123  29.0118  31.2451  31.2451  31.3217

          k =-0.4167 0.4167-0.4167 (  1616 PWs)   bands (ev):

   -10.2387  -7.7216  -0.6130  -0.6130   1.1611   1.1611   1.4882   2.5673
     7.9584   7.9584   9.4978  11.9656  11.9656  13.9043  16.3164  17.0927
    17.0927  18.9660  22.3360  22.7322  22.7322  25.1849  25.9478  25.9478
    27.9990  27.9990  29.8160  30.1989  30.1989  30.9648

          k = 0.5000-0.5000 0.5000 (  1622 PWs)   bands (ev):

    -9.3459  -8.8122  -0.6164  -0.6164   0.9753   0.9753   1.5673   2.3068
     9.5271   9.5271  10.1954  10.1954  10.3370  13.0375  18.4596  19.1893
    19.1893  19.6377  20.5187  20.5187  21.6552  22.7312  26.0815  26.0815
    28.4299  28.4299  29.6327  29.6327  30.3339  30.5618

          k = 0.0000 0.1667 0.0000 (  1615 PWs)   bands (ev):

   -12.6682  -0.2483  -0.2483   0.3107   0.7716   2.7935   2.7935   3.6053
     4.8451   5.0955   6.3666   7.2619   7.2619   8.5740  11.4352  21.4557
    21.4557  22.7575  23.2771  23.5359  26.3473  26.3473  26.4611  28.8087
    28.8087  29.6181  32.8235  33.9627  33.9627  35.0386

          k =-0.0833 0.2500-0.0833 (  1599 PWs)   bands (ev):

   -12.4262  -1.9338  -0.7948  -0.0275   1.1206   2.5738   3.0503   3.5744
     5.6356   5.6402   5.9613   7.4967   8.6900   9.8440  12.9396  19.2253
    19.6292  22.0935  22.4168  23.2796  26.0306  26.6201  27.9630  29.3308
    30.3199  31.7415  31.9699  32.6267  32.7593  33.6737

          k =-0.1667 0.3333-0.1667 (  1610 PWs)   bands (ev):

   -11.9778  -3.8277  -1.1614  -0.4457   1.0770   2.6941   2.8738   3.5793
     5.2160   5.7487   7.0232   9.5697  10.6772  11.7511  14.8187  16.5969
    17.3297  20.0054  22.7052  23.5376  25.9244  27.0029  28.4132  29.0572
    29.6728  30.3353  31.0200  31.5387  31.6157  33.2343

          k =-0.2500 0.4167-0.2500 (  1606 PWs)   bands (ev):

   -11.3248  -5.5810  -1.3423  -0.8107   0.4740   2.6311   2.8759   3.7157
     4.7929   6.9459   8.3157  12.1905  12.8656  13.9565  14.1177  15.0680
    16.8950  17.9102  23.1412  23.9845  24.5395  26.8497  27.3239  27.5046
    28.3229  29.3034  29.4358  30.4989  30.5249  32.0014

          k =-0.3333 0.5000-0.3333 (  1616 PWs)   bands (ev):

   -10.4726  -7.1534  -1.3392  -1.2011   0.1803   2.2075   2.5404   3.6314
     5.8760   8.4974   9.7016  11.7439  12.7813  14.8237  15.3370  15.9476
    16.5953  19.2532  21.8965  23.4343  23.7828  24.6862  25.4669  26.6074
    27.5804  28.2105  28.2851  29.3707  31.0323  31.3259

          k = 0.5833-0.4167 0.5833 (  1615 PWs)   bands (ev):

    -9.4665  -8.4885  -1.5892  -1.1606   0.2542   1.7174   2.4196   3.4930
     7.5487   9.4464  10.2877  10.4575  11.6184  13.9746  17.5672  17.9003
    18.9236  19.8254  20.4849  21.8983  22.0510  23.7112  24.5083  25.3290
    27.4315  27.5780  28.8339  28.8689  30.6715  30.9443

          k = 0.5000-0.3333 0.5000 (  1616 PWs)   bands (ev):

    -9.8066  -8.0824  -1.8732  -0.8263   0.6083   1.4482   2.2439   3.7162
     7.6009   8.3287   9.8817  11.2306  12.3667  14.0718  16.1748  17.6152
    18.9321  20.0394  21.0267  21.3486  22.5498  24.2825  24.8150  25.3869
    27.6209  27.7422  28.4731  28.9917  30.7358  31.2885

          k = 0.4167-0.2500 0.4167 (  1611 PWs)   bands (ev):

   -10.7781  -6.6507  -1.9981  -0.3787   1.1875   1.4401   2.1403   4.1602
     5.8802   6.9238   9.7346  11.9130  13.6795  14.3254  14.5406  16.1468
    16.5698  18.0214  23.2920  23.3546  24.2895  24.4051  26.3609  26.9240
    27.7928  28.5200  28.9601  29.1001  31.1692  31.7096

          k = 0.3333-0.1667 0.3333 (  1605 PWs)   bands (ev):

   -11.5650  -5.0147  -1.9434   0.1123   1.7252   1.9573   2.1726   4.4090
     4.4131   5.9240   8.3074  11.2124  11.7100  14.1738  14.3046  15.7483
    16.9709  18.0012  23.0360  23.7163  26.0134  26.6700  27.2290  27.8028
    29.3244  29.7702  29.9216  30.1929  31.0845  32.8531

          k = 0.2500-0.0833 0.2500 (  1600 PWs)   bands (ev):

   -12.1501  -3.2068  -1.7019   0.5959   2.0670   2.3311   2.8280   3.4796
     3.7090   6.2051   7.0139   8.7714   9.4977  12.0291  13.7408  16.7952
    19.4614  19.9770  22.6324  23.4753  26.1106  26.7811  28.7534  29.3288
    29.9159  30.7302  31.3660  31.8578  32.5228  33.3121

          k = 0.1667-0.0000 0.1667 (  1592 PWs)   bands (ev):

   -12.5299  -1.3151  -1.2390   0.9541   1.6974   2.3971   2.6492   3.9711
     3.9735   5.6950   6.1127   7.5147   7.9025  10.0813  12.0263  19.3987
    21.5586  21.6063  22.7884  23.6569  25.9243  26.4941  27.7288  29.1196
    29.4446  31.0949  32.3912  33.0481  33.9638  34.3328

          k = 0.0000 0.3333 0.0000 (  1607 PWs)   bands (ev):

   -12.2535  -1.3990  -1.3990  -0.8144  -0.2576   1.2250   4.5023   4.5023
     6.6063   6.6679   6.7847   7.8910   7.8910   9.3709  14.4434  18.9613
    18.9613  20.0105  21.6642  23.6546  26.7534  26.8360  26.8360  30.5797
    30.5797  31.4736  31.7402  32.0359  32.0359  32.6042

          k =-0.0833 0.4167-0.0833 (  1616 PWs)   bands (ev):

   -11.8741  -2.9812  -1.8224  -1.2276  -0.1785   0.6942   4.7774   4.9613
     6.7335   6.8432   7.7453   9.1123   9.3750  10.6182  16.2809  16.6618
    17.2175  19.8813  21.1977  22.8444  25.7629  27.1682  28.0008  28.6229
    28.9363  29.8957  31.2774  32.2715  32.4764  33.6575

          k =-0.1667 0.5000-0.1667 (  1611 PWs)   bands (ev):

   -11.2896  -4.7605  -2.0564  -1.8633  -0.5948   1.7738   4.3938   4.6345
     6.1910   7.7176   9.0108  11.4468  11.4852  12.7294  14.1232  15.0924
    18.3114  20.3173  20.3904  21.9651  23.9950  26.7105  27.3259  27.6518
    27.7614  28.8744  30.5655  30.7690  31.6867  32.9817

          k =-0.2500 0.5833-0.2500 (  1610 PWs)   bands (ev):

   -10.5037  -6.3869  -2.5329  -2.0987  -0.7594   3.1163   3.6788   4.5231
     5.7329   9.1867  10.3225  11.7013  12.8445  13.8215  14.1638  15.3300
    18.3940  20.6000  20.8793  21.1070  22.5343  25.1113  25.9346  26.0789
    27.4545  28.0859  28.3256  29.3638  30.5775  32.1266

          k = 0.6667-0.3333 0.6667 (  1607 PWs)   bands (ev):

    -9.5335  -7.8139  -3.0988  -1.9506  -0.6503   3.1005   3.7035   5.2206
     5.7062   9.4017  10.3749  11.0296  12.4347  16.0803  16.3363  16.5504
    18.2090  18.8514  21.3530  21.7652  23.0806  23.2366  24.4890  25.0394
    25.1471  26.0569  28.8720  28.9835  30.2078  31.1163

          k = 0.5833-0.2500 0.5833 (  1602 PWs)   bands (ev):

    -9.1950  -8.2174  -3.5005  -1.6163  -0.3126   2.7072   3.5362   5.6885
     6.9944   7.4342   8.9308  12.9281  13.3493  15.0104  15.4488  18.8383
    18.9620  19.3203  20.9988  21.5344  22.2855  22.4654  23.8391  24.8375
    25.0350  26.0007  29.0072  29.2135  30.2323  30.8459

          k = 0.5000-0.1667 0.5000 (  1610 PWs)   bands (ev):

   -10.1994  -6.8848  -3.7173  -1.1058   0.2341   2.5144   3.3815   5.6370
     5.7103   7.1925   9.5289  12.1000  13.2361  15.0407  15.3230  16.6484
    18.6199  19.8542  21.0868  21.7534  22.4042  23.0212  25.1787  25.5964
    26.2521  27.3935  28.6682  29.8259  30.8554  31.6675

          k = 0.4167-0.0833 0.4167 (  1613 PWs)   bands (ev):

   -11.0502  -5.3170  -3.7411  -0.4439   0.9754   2.5239   3.3420   4.0732
     4.7692   7.3405  10.0430  11.4110  11.7875  12.6902  16.1900  17.4203
    17.5115  18.2889  20.6152  21.9791  24.8879  25.2381  26.8305  26.8661
    27.3536  28.1660  29.2119  31.5386  31.9866  32.7485

          k = 0.3333 0.0000 0.3333 (  1604 PWs)   bands (ev):

   -11.7023  -3.6105  -3.5319   0.2846   1.8857   2.4969   3.0713   3.2685
     3.6898   7.6372   8.4294   9.9268  10.0045  14.0406  14.2246  15.5569
    19.3794  19.5551  20.5509  22.2269  26.1216  26.9677  27.9888  28.6349
    28.8171  28.8358  31.0229  32.1667  32.5886  32.9470

          k = 0.0000 0.5000 0.0000 (  1612 PWs)   bands (ev):

   -11.5640  -2.3067  -2.3067  -2.2869  -1.1416  -0.6549   6.1657   6.1657
     7.4813   8.6779   8.7466   9.1080   9.1080  10.1163  16.5779  16.5779
    17.4362  18.0550  19.7726  24.2743  25.5088  27.0270  27.0270  27.4497
    27.4497  27.8561  30.3422  32.3298  34.3023  35.0029

          k =-0.0833 0.5833-0.0833 (  1617 PWs)   bands (ev):

   -11.0486  -3.8250  -2.9949  -2.6016  -1.2975  -0.2575   6.0889   6.4262
     8.3830   8.3908   9.9094  10.5593  11.0354  11.6626  14.3192  15.0007
    17.5000  19.4253  20.0173  23.2570  23.7162  25.2616  25.3378  26.6481
    27.8803  28.2652  29.9899  31.8082  32.9554  33.9618

          k =-0.1667 0.6667-0.1667 (  1620 PWs)   bands (ev):

   -10.3305  -5.4474  -3.8465  -2.7034  -1.4443   1.1287   5.3812   6.1496
     7.9800   9.8940  11.1126  11.7855  12.7505  12.7547  13.4573  14.4266
    18.0593  19.5986  20.4686  21.6685  22.4766  23.7129  24.0637  25.8870
    27.9641  28.4512  28.6975  29.9677  31.3804  32.7975

          k = 0.7500-0.2500 0.7500 (  1617 PWs)   bands (ev):

    -9.4188  -6.9273  -4.5295  -2.6116  -1.3686   2.7203   4.7480   5.7826
     7.8221   9.5140  10.6189  11.7019  13.1637  15.0611  15.2188  17.0806
    17.9852  18.6861  19.0952  21.3356  22.3880  22.4901  23.9518  24.6934
    26.9408  27.1002  28.1128  29.1492  29.4892  31.7442

          k = 0.6667-0.1667 0.6667 (  1607 PWs)   bands (ev):

    -8.5331  -8.0027  -5.0227  -2.3278  -1.0798   4.2341   4.2826   5.7066
     7.4609   7.5785   9.2934  13.5864  14.1960  14.9922  17.0850  17.6412
    18.2414  19.0700  19.9191  20.4229  21.8745  22.3342  22.5407  24.1738
    25.0083  27.0424  27.5279  29.5828  29.6329  31.1896

          k = 0.5833-0.0833 0.5833 (  1611 PWs)   bands (ev):

    -9.4228  -6.9151  -5.3192  -1.8569  -0.5860   4.0052   4.6903   5.5921
     6.1656   7.2686   9.1110  11.9779  15.3930  15.6197  16.3869  17.2909
    18.7411  20.0207  20.1523  21.4906  21.4976  21.9435  22.7906  23.3021
    25.1528  27.8174  27.8969  29.1857  31.0404  31.7292

          k = 0.5000 0.0000 0.5000 (  1604 PWs)   bands (ev):

   -10.3331  -5.4602  -5.3765  -1.2123   0.1046   3.8275   4.0359   4.4874
     5.0234   8.7429   9.7461   9.9454  13.9439  14.0800  17.2914  17.7734
    18.6567  18.6704  19.8680  20.7551  23.1489  23.5618  23.9978  24.7723
    27.4235  28.2859  28.5614  28.7424  32.5015  32.9979

          k = 0.0000 0.6667 0.0000 (  1624 PWs)   bands (ev):

   -10.6024  -4.2213  -2.9592  -2.9592  -1.7911  -1.6370   7.6483   7.6483
     8.4557  10.8150  10.8665  11.0081  11.0081  11.3133  14.4276  14.4276
    15.1047  18.0958  21.8894  22.8031  23.3667  23.3667  24.1710  25.4338
    28.2586  28.2586  29.6739  31.7340  33.7593  33.7593

          k =-0.0833 0.7500-0.0833 (  1618 PWs)   bands (ev):

    -9.9532  -5.1768  -4.1896  -3.1237  -1.9060  -0.8126   7.2701   7.8269
    10.0552  10.4619  11.9128  11.9383  12.3833  12.7437  13.2698  13.7914
    15.3593  17.9280  20.2243  21.6919  21.9932  23.4253  23.6308  25.0455
    28.1894  28.7822  29.2376  31.9666  32.5417  32.9264

          k = 0.8333-0.1667 0.8333 (  1619 PWs)   bands (ev):

    -9.1066  -6.0954  -5.5492  -3.0937  -1.8839   0.7408   6.6059   7.4711
     9.8029   9.8820  11.3560  12.0703  13.7815  14.2824  14.4540  16.0380
    16.3388  17.4076  18.8343  20.3080  20.6535  22.8171  23.3189  25.8465
    26.3576  29.3634  29.5204  29.6189  30.5094  32.1711

          k = 0.7500-0.0833 0.7500 (  1620 PWs)   bands (ev):

    -8.1097  -7.2047  -6.3215  -2.8697  -1.6539   2.4926   6.0817   7.0799
     7.6796   8.4513  11.0938  13.8686  14.0964  15.4734  16.3183  16.5238
    17.0595  18.5647  19.4340  19.6572  20.1053  21.6068  22.5896  24.2606
    26.6761  27.2730  28.3893  29.9139  30.3636  31.7180

          k = 0.6667 0.0000 0.6667 (  1612 PWs)   bands (ev):

    -8.4690  -6.8017  -6.6686  -2.4547  -1.2194   4.2841   5.6848   5.7947
     6.8237   6.8450  11.0677  11.7606  15.7900  16.4811  16.8858  17.5284
    18.3671  19.0037  19.3593  19.6611  20.8156  20.8271  24.0153  24.0767
    24.1837  25.5860  28.3078  29.7456  31.6672  31.8945

          k = 0.0000 0.8333 0.0000 (  1628 PWs)   bands (ev):

    -9.3732  -6.1515  -3.3519  -3.3519  -2.1804  -2.1277   9.0765   9.0765
     9.7071  11.9490  12.2213  12.2213  12.6778  13.0348  13.7483  13.7483
    13.7971  17.1208  19.8234  19.9052  19.9052  21.1152  25.3031  27.0648
    28.4820  29.2406  29.2406  32.0007  32.2633  32.2633

          k = 0.9167-0.0833 0.9167 (  1622 PWs)   bands (ev):

    -8.5944  -6.9855  -4.4972  -3.3854  -2.1937  -1.0844   8.6500   9.2351
    10.2586  10.7199  11.6561  12.8653  13.3423  13.6121  14.1168  15.1834
    16.0289  17.0446  17.9948  18.4172  19.1013  20.4205  25.4084  26.9280
    28.2443  29.7658  30.1857  30.9548  31.6807  32.3098

          k = 0.8333 0.0000 0.8333 (  1614 PWs)   bands (ev):

    -7.6558  -7.6128  -5.8658  -3.2241  -2.0263   0.6111   8.0546   8.1107
     8.7803   8.9842  13.4187  13.4720  13.8183  14.1477  15.1216  15.5216
    16.6858  17.6872  18.0136  18.2635  19.9968  20.7338  23.8017  24.7341
    28.7818  29.4393  29.6285  30.0746  30.8860  31.5747

          k = 0.0000-1.0000 0.0000 (  1604 PWs)   bands (ev):

    -7.8841  -7.8841  -3.4830  -3.4830  -2.2970  -2.2970  10.5905  10.5905
    10.6289  10.6289  11.2343  11.2343  12.8706  12.8706  15.9853  15.9853
    16.4569  16.4569  17.2416  17.2416  18.6220  18.6220  27.0795  27.0795
    29.9926  29.9926  30.4371  30.4371  31.3301  31.3301

          k =-0.1667 0.3333 0.0000 (  1603 PWs)   bands (ev):

   -12.1156  -2.4629  -2.3810   0.0735   0.9531   1.6903   3.6471   3.9129
     4.8947   7.0293   7.4836   8.4654   8.6319  11.2401  14.6291  16.8097
    19.0865  20.8166  21.9598  22.7210  25.0518  28.1046  28.5916  29.2475
    29.9125  30.9235  31.5811  32.1661  32.3196  33.0796

          k =-0.2500 0.4167-0.0833 (  1607 PWs)   bands (ev):

   -11.5990  -4.2603  -2.7242  -0.5575   0.8664   2.1861   3.1670   3.9692
     5.3947   6.9096   8.7769  10.1993  10.7034  13.2495  14.2865  16.5955
    17.2555  20.0863  20.8569  22.9537  24.6344  26.7041  27.9531  28.2280
    29.2707  30.1159  30.3971  31.1487  31.7102  32.4995

          k =-0.3333 0.5000-0.1667 (  1604 PWs)   bands (ev):

   -10.8793  -5.9502  -2.8410  -1.2847   0.6545   2.2028   3.7037   3.9214
     5.7140   7.2804  10.2377  11.8205  12.3609  13.4607  15.0062  15.6087
    18.0317  18.9051  21.2004  22.8334  23.5167  25.4575  25.8917  26.7196
    27.9534  28.4730  29.7796  30.0572  30.5639  32.0157

          k = 0.5833-0.4167 0.7500 (  1612 PWs)   bands (ev):

    -9.9653  -7.4528  -2.7855  -1.8809   0.6374   1.6719   3.8252   4.8699
     5.8120   8.5659   9.8086  11.7086  13.0077  14.6068  15.7790  16.8681
    17.9892  20.2295  21.0163  21.6938  22.8826  23.8503  24.6628  25.2169
    26.4450  27.4612  27.8800  29.3246  30.2572  32.0059

          k = 0.5000-0.3333 0.6667 (  1602 PWs)   bands (ev):

    -9.0740  -8.5411  -2.6786  -2.1719   0.6847   1.4324   3.8529   4.8809
     7.0714   7.7710  10.4976  10.8779  13.2405  14.7453  16.6575  17.6763
    19.4689  19.6597  20.8906  20.9350  22.7001  23.3956  23.9944  24.7533
    25.2208  27.0274  27.7180  28.6381  30.4951  31.8515

          k =-0.1667 0.5000 0.0000 (  1617 PWs)   bands (ev):

   -11.4267  -3.4107  -3.2948  -1.7708   0.0945   0.2878   4.6193   5.7947
     6.7097   8.2793   8.6414  10.2294  10.2514  12.0676  14.3961  16.7039
    18.1879  18.5158  21.0243  22.5954  24.2633  26.1311  26.4405  28.2885
    28.6281  29.3315  30.1777  31.6176  32.7284  32.9621

          k =-0.2500 0.5833-0.0833 (  1611 PWs)   bands (ev):

   -10.7753  -5.0675  -3.5506  -2.6045  -0.0134   1.4664   3.8999   5.9560
     7.3034   8.2399  10.3332  11.6625  12.0175  12.7957  14.2110  15.0947
    18.4614  20.1297  20.8917  21.6348  22.3810  24.1505  25.6327  26.9963
    27.4264  28.8896  29.7724  30.5734  31.3973  31.9098

          k = 0.6667-0.3333 0.8333 (  1617 PWs)   bands (ev):

    -9.9255  -6.6233  -3.6928  -3.1711  -0.0085   2.7293   3.5022   5.8653
     7.0715   9.1074  10.0592  12.0826  13.1149  13.5486  15.5924  16.7368
    18.5377  19.2156  19.7181  22.1875  22.4111  22.9710  24.4850  25.4681
    26.1656  27.1584  28.5064  29.3988  30.0761  31.3403

          k = 0.5833-0.2500 0.7500 (  1607 PWs)   bands (ev):

    -8.9226  -7.9500  -4.0593  -3.1330   0.1928   2.5686   4.7067   5.8688
     6.7302   7.7081  10.6656  11.4147  14.3606  15.5015  16.4419  17.0573
    18.5151  19.2899  20.2657  20.8260  22.3031  22.9175  23.4197  24.6570
    25.1984  26.7378  27.3023  28.1625  29.7148  31.4831

          k = 0.5000-0.1667 0.6667 (  1605 PWs)   bands (ev):

    -9.2628  -7.5435  -4.3847  -2.7474   0.5754   2.2790   5.0452   5.4715
     7.0221   7.3291   9.1553  13.0588  13.6988  15.0353  16.4661  17.9773
    18.3701  19.4707  20.3664  21.1685  22.2836  22.5457  23.4873  23.8721
    25.4441  26.3987  28.4176  28.5786  29.8704  31.4023

          k = 0.4167-0.0833 0.5833 (  1610 PWs)   bands (ev):

   -10.2310  -6.1196  -4.5357  -2.1495   1.1003   2.1804   3.6523   5.1931
     6.6464   8.1216   9.5583  11.1800  13.3872  14.6995  15.4982  17.6440
    18.2757  19.2002  20.7895  21.1792  22.4192  23.2185  24.3802  25.7446
    26.2219  27.2977  29.3684  29.9519  30.6311  31.6721

          k = 0.3333 0.0000 0.5000 (  1606 PWs)   bands (ev):

   -11.0155  -4.5396  -4.4526  -1.3766   1.6077   1.9813   2.6887   5.0064
     5.5268   8.4268   9.2285  11.6615  11.8920  12.1972  15.2916  17.1040
    18.5658  18.8994  20.1681  21.9053  23.7003  25.1053  25.7831  26.7664
    27.8770  29.8345  30.2006  30.5002  31.1054  32.1997

          k =-0.1667 0.6667-0.0000 (  1626 PWs)   bands (ev):

   -10.4662  -4.3510  -3.9528  -3.6135  -0.5435  -0.4771   5.6354   7.5432
     8.9316   9.8059   9.8351  12.2075  12.2137  12.5094  13.2409  14.5942
    16.3980  19.2408  21.5943  21.9181  22.4780  23.6065  24.6097  25.3604
    26.9951  28.7278  30.0946  31.9716  32.2387  32.2876

          k = 0.7500-0.2500 0.9167 (  1621 PWs)   bands (ev):

    -9.6835  -5.6564  -4.7798  -3.9184  -0.5553   0.9614   4.9476   7.6848
     9.1100   9.7831  10.5631  11.9050  12.8394  13.7997  14.8063  15.7434
    16.6860  18.7476  19.8399  20.7204  22.1089  23.5606  24.3832  24.6894
    26.4546  27.0065  29.1141  30.4670  31.0657  31.7380

          k = 0.6667-0.1667 0.8333 (  1616 PWs)   bands (ev):

    -8.7179  -7.0304  -5.4144  -3.7906  -0.4011   2.6085   4.4208   7.3174
     7.5290   9.3648  10.9745  12.0843  14.2422  15.0349  16.1961  16.9309
    17.1615  19.0193  19.5592  19.6351  21.5510  22.2171  23.2152  25.5361
    25.6412  26.5420  27.6769  28.7421  29.8187  31.1969

          k = 0.5833-0.0833 0.7500 (  1614 PWs)   bands (ev):

    -8.3897  -7.4117  -5.8487  -3.4401  -0.0530   3.7082   4.6461   5.6187
     7.1739   8.5033  10.2128  12.9717  13.9492  16.4961  16.8574  17.4549
    18.2184  18.6450  19.5828  20.4711  21.0640  22.3853  22.9283  23.3320
    25.6133  26.3163  26.8556  29.1784  29.7160  30.9750

          k = 0.5000 0.0000 0.6667 (  1621 PWs)   bands (ev):

    -9.3859  -6.1368  -6.0343  -2.8882   0.4758   3.5008   3.8017   6.1118
     7.0629   7.4811  10.2486  10.8731  15.3608  15.9908  16.1672  17.5496
    18.4244  19.3695  19.5595  21.2655  21.3895  22.5295  22.7203  24.4262
    25.8096  26.6597  26.6819  29.6278  30.7618  30.9344

          k = 0.8333-0.1667 1.0000 (  1617 PWs)   bands (ev):

    -9.2391  -6.0444  -4.3457  -4.2958  -0.9296  -0.9058   6.8576   9.0984
     9.9254  10.6924  11.7529  12.2501  12.5748  13.7220  14.1503  15.0087
    15.5921  17.7618  18.7455  19.1483  21.5476  22.0917  24.2315  26.4342
    26.8077  28.1486  30.6199  31.3374  31.6460  31.8968

          k = 0.7500-0.0833 0.9167 (  1620 PWs)   bands (ev):

    -8.3335  -6.7675  -5.7434  -4.2314  -0.8233   0.7053   6.2589   7.7989
     9.2087  10.7027  12.1691  12.4606  13.5529  14.6458  15.1963  15.8093
    16.5264  17.7873  18.2116  19.4363  20.5331  21.8422  23.2891  24.8288
    27.3676  28.4586  28.5845  29.9401  30.5558  31.5347

          k = 0.6667 0.0000 0.8333 (  1620 PWs)   bands (ev):

    -7.5423  -7.2139  -6.7801  -3.9365  -0.5323   2.5098   5.8057   5.8207
     8.7331   9.0554  12.3071  12.7329  13.9951  15.0866  16.0961  16.7185
    17.1523  18.6331  19.5709  20.0323  20.8924  21.4291  22.9995  23.0801
    25.6628  27.2593  28.4280  29.5423  29.7048  30.9955

          k =-0.1667-1.0000 0.0000 (  1622 PWs)   bands (ev):

    -7.7554  -7.7554  -4.4666  -4.4666  -1.0527  -1.0527   8.3070   8.3070
    10.6868  10.6868  12.1100  12.1100  14.1942  14.1942  14.8979  14.8979
    16.5536  16.5536  18.3132  18.3132  19.4900  19.4900  25.5560  25.5560
    28.9997  28.9997  30.3213  30.3213  31.7551  31.7551

          k = 0.6667-0.3333 1.0000 (  1610 PWs)   bands (ev):

   -10.0589  -5.2420  -5.1134  -3.4751   1.2944   1.3716   3.2049   7.0697
     7.9404   9.0552  10.1972  10.2694  14.0659  14.1843  14.7712  16.5403
    17.0839  20.2493  20.7409  21.5028  21.5282  22.6211  24.6568  25.8254
    26.2636  27.4498  28.3833  29.0669  30.8366  32.3346

          k = 0.5833-0.2500 0.9167 (  1611 PWs)   bands (ev):

    -9.1498  -6.6590  -5.1100  -4.1397   1.3365   2.3000   3.2970   6.8258
     7.7868   8.8390  10.0570  12.2571  13.3105  15.5586  16.5855  17.4280
    17.6737  18.9670  19.5838  20.1856  21.9474  23.1163  24.2635  24.9761
    25.4299  25.8505  27.1690  27.6542  29.5646  31.1446

          k = 0.5000-0.1667 0.8333 (  1610 PWs)   bands (ev):

    -8.2641  -7.7359  -4.9952  -4.4558   1.3830   2.1992   4.6029   5.4127
     7.6558   8.9565  11.2664  11.5819  14.5593  15.1058  16.8145  17.4506
    18.1116  18.5581  20.2708  20.8553  21.7452  22.3708  22.5085  24.3427
    25.8330  26.0537  27.3286  27.6835  28.0282  30.2245

          k = 0.6667-0.1667 1.0000 (  1618 PWs)   bands (ev):

    -8.8404  -5.9345  -5.5024  -5.1647   0.9693   0.9904   4.3032   7.3159
     9.1908  10.5304  11.4131  11.6499  12.8758  14.7070  15.9230  16.6980
    17.4732  17.7112  18.8289  20.3525  21.8602  23.3401  23.4232  24.6368
    25.9625  26.3559  27.9035  28.1075  29.1769  32.6246

          k = 0.5833-0.0833 0.9167 (  1615 PWs)   bands (ev):

    -7.8481  -6.9432  -6.1012  -5.2030   1.1777   2.6132   3.9003   5.3313
     9.4389  10.8578  11.8315  12.0572  13.6878  14.4227  15.1468  16.4431
    18.1653  19.3900  20.1794  20.9241  21.6775  21.8788  22.7061  24.0408
    24.5692  26.0586  26.6202  27.6220  29.3964  31.0365

          k = 0.5000 0.0000 0.8333 (  1612 PWs)   bands (ev):

    -8.1973  -6.5769  -6.3992  -4.7934   1.5178   3.0575   3.5228   5.0421
     9.0287   9.6894  11.6553  11.9786  13.3850  15.3184  16.0110  16.9869
    18.5934  19.1856  19.4716  21.1204  21.8215  22.0003  23.1453  24.3176
    24.5580  25.6230  26.6607  27.1774  28.6407  31.8633

          k =-0.3333-1.0000 0.0000 (  1618 PWs)   bands (ev):

    -7.3853  -7.3853  -5.5967  -5.5967   0.8569   0.8569   5.7093   5.7093
    10.8691  10.8691  12.4454  12.4454  13.7352  13.7352  14.9711  14.9711
    17.8866  17.8866  20.6814  20.6814  20.8861  20.8861  23.1085  23.1085
    26.9966  26.9966  27.5694  27.5694  31.0554  31.0554

          k =-0.5000-1.0000 0.0000 (  1628 PWs)   bands (ev):

    -7.0039  -7.0039  -6.2384  -6.2384   2.5427   2.5427   3.7901   3.7901
    10.9811  10.9811  12.6937  12.6937  13.2415  13.2415  14.7550  14.7550
    20.1294  20.1294  20.7224  20.7224  21.7476  21.7476  23.6301  23.6301
    24.0168  24.0168  26.1657  26.1657  31.1784  31.1784

     the Fermi energy is    31.6023 ev

     Writing output data file Si.save

     init_run     :      0.11s CPU      0.12s WALL (       1 calls)
     electrons    :     87.02s CPU     87.89s WALL (       1 calls)

     Called by init_run:
     wfcinit      :      0.00s CPU      0.00s WALL (       1 calls)
     potinit      :      0.03s CPU      0.03s WALL (       1 calls)

     Called by electrons:
     c_bands      :     86.75s CPU     87.62s WALL (       1 calls)
     v_of_rho     :      0.03s CPU      0.03s WALL (       1 calls)

     Called by c_bands:
     init_us_2    :      0.08s CPU      0.08s WALL (      72 calls)
     cegterg      :     81.19s CPU     81.97s WALL (     111 calls)

     Called by *egterg:
     h_psi        :     56.37s CPU     57.03s WALL (    1747 calls)
     g_psi        :      0.16s CPU      0.16s WALL (    1564 calls)
     cdiaghg      :      5.55s CPU      5.57s WALL (    1636 calls)

     Called by h_psi:
     add_vuspsi   :      1.58s CPU      1.60s WALL (    1747 calls)

     General routines
     calbec       :      1.75s CPU      1.76s WALL (    1747 calls)
     fft          :      0.01s CPU      0.01s WALL (      10 calls)
     fftw         :     50.33s CPU     50.94s WALL (   58768 calls)
     davcio       :      0.00s CPU      0.01s WALL (      72 calls)

     Parallel routines
     fft_scatter  :      1.25s CPU      1.24s WALL (   58778 calls)

     PWSCF        :  1m28.60s CPU     1m29.51s WALL


   This run was terminated on:  22: 5:17  13Feb2023            

=------------------------------------------------------------------------------=
   JOB DONE.
=------------------------------------------------------------------------------=
