
     Program PWSCF v.5.1 starts on 13Feb2023 at 22: 2:56 

     This program is part of the open-source Quantum ESPRESSO suite
     for quantum simulation of materials; please cite
         "P. Giannozzi et al., J. Phys.:Condens. Matter 21 395502 (2009);
          URL http://www.quantum-espresso.org", 
     in publications or presentations arising from this work. More details at
     http://www.quantum-espresso.org/quote

     Parallel version (MPI), running on     1 processors
     Waiting for input...
     Reading input from standard input

     Current dimensions of program PWSCF are:
     Max number of different atomic species (ntypx) = 10
     Max number of k-points (npk) =  40000
     Max angular momentum in pseudopotentials (lmaxx) =  3
               file Si.pbe-mt_fhi.UPF: wavefunction(s)  4f renormalized

     Subspace diagonalization in iterative solution of the eigenvalue problem:
     a serial algorithm will be used


     G-vector sticks info
     --------------------
     sticks:   dense  smooth     PW     G-vecs:    dense   smooth      PW
     Sum         733     733    211                12939    12939    2109



     bravais-lattice index     =            2
     lattice parameter (alat)  =      10.2623  a.u.
     unit-cell volume          =     270.1967 (a.u.)^3
     number of atoms/cell      =            2
     number of atomic types    =            1
     number of electrons       =        58.00
     number of Kohn-Sham states=           30
     kinetic-energy cutoff     =      50.0000  Ry
     charge density cutoff     =     200.0000  Ry
     convergence threshold     =      1.6E-09
     mixing beta               =       0.3000
     number of iterations used =            8  plain     mixing
     Exchange-correlation      = PBE ( 1  4  3  4 0)

     celldm(1)=  10.262347  celldm(2)=   0.000000  celldm(3)=   0.000000
     celldm(4)=   0.000000  celldm(5)=   0.000000  celldm(6)=   0.000000

     crystal axes: (cart. coord. in units of alat)
               a(1) = (  -0.500000   0.000000   0.500000 )  
               a(2) = (   0.000000   0.500000   0.500000 )  
               a(3) = (  -0.500000   0.500000   0.000000 )  

     reciprocal axes: (cart. coord. in units 2 pi/alat)
               b(1) = ( -1.000000 -1.000000  1.000000 )  
               b(2) = (  1.000000  1.000000  1.000000 )  
               b(3) = ( -1.000000  1.000000 -1.000000 )  


     PseudoPot. # 1 for Si read from file:
     /home/acedemo/psudo/Si.pbe-mt_fhi.UPF
     MD5 check sum: 259057c2adf9952f9ced37ae3d9e311d
     Pseudo is Norm-conserving, Zval =  4.0
     Generated using FHI98PP, converted with fhi2upf.x v.5.0.2
     Using radial grid of  495 points,  3 beta functions with: 
                l(1) =   0
                l(2) =   1
                l(3) =   3

     atomic species   valence    mass     pseudopotential
        Si             4.00    28.08550     Si( 1.00)

     48 Sym. Ops., with inversion, found (24 have fractional translation)



   Cartesian axes

     site n.     atom                  positions (alat units)
         1           Si  tau(   1) = (   0.0000000   0.0000000   0.0000000  )
         2           Si  tau(   2) = (   0.2500000   0.2500000   0.2500000  )

     number of k points=    10  Marzari-Vanderbilt smearing, width (Ry)=  0.0500
                       cart. coord. in units 2pi/alat
        k(    1) = (   0.0000000   0.0000000   0.0000000), wk =   0.0160000
        k(    2) = (  -0.2000000   0.2000000  -0.2000000), wk =   0.1280000
        k(    3) = (  -0.4000000   0.4000000  -0.4000000), wk =   0.1280000
        k(    4) = (   0.0000000   0.4000000   0.0000000), wk =   0.0960000
        k(    5) = (  -0.2000000   0.6000000  -0.2000000), wk =   0.3840000
        k(    6) = (   0.6000000  -0.2000000   0.6000000), wk =   0.3840000
        k(    7) = (   0.4000000   0.0000000   0.4000000), wk =   0.1920000
        k(    8) = (   0.0000000   0.8000000   0.0000000), wk =   0.0960000
        k(    9) = (   0.8000000   0.0000000   0.8000000), wk =   0.1920000
        k(   10) = (   0.6000000  -0.2000000   1.0000000), wk =   0.3840000

     Dense  grid:    12939 G-vectors     FFT dimensions: (  36,  36,  36)

     Largest allocated arrays     est. size (Mb)     dimensions
        Kohn-Sham Wavefunctions         0.75 Mb     (    1639,   30)
        NL pseudopotentials             0.55 Mb     (    1639,   22)
        Each V/rho on FFT grid          0.71 Mb     (   46656)
        Each G-vector array             0.10 Mb     (   12939)
        G-vector shells                 0.00 Mb     (     180)
     Largest temporary arrays     est. size (Mb)     dimensions
        Auxiliary wavefunctions         3.00 Mb     (    1639,  120)
        Each subspace H/S matrix        0.22 Mb     (     120,  120)
        Each <psi_i|beta_j> matrix      0.01 Mb     (      22,   30)
        Arrays for rho mixing           5.70 Mb     (   46656,    8)

     Initial potential from superposition of free atoms

     starting charge    7.99859, renormalised to   58.00000
     Starting wfc are   32 randomized atomic wfcs

     total cpu time spent up to now is        1.1 secs

     per-process dynamical memory:    21.5 Mb

     Self-consistent Calculation

     iteration #  1     ecut=    50.00 Ry     beta=0.30
     Davidson diagonalization with overlap
     ethr =  1.00E-02,  avg # of iterations =  7.0

     total cpu time spent up to now is        6.9 secs

     total energy              =      85.15539823 Ry
     Harris-Foulkes estimate   =      -6.17277525 Ry
     estimated scf accuracy    <     199.46996424 Ry

     iteration #  2     ecut=    50.00 Ry     beta=0.30
     Davidson diagonalization with overlap
     ethr =  1.00E-02,  avg # of iterations =  4.0

     total cpu time spent up to now is       10.8 secs

     total energy              =      58.75171132 Ry
     Harris-Foulkes estimate   =      56.76214994 Ry
     estimated scf accuracy    <       3.84134947 Ry

     iteration #  3     ecut=    50.00 Ry     beta=0.30
     Davidson diagonalization with overlap
     ethr =  6.62E-03,  avg # of iterations =  3.1

     total cpu time spent up to now is       13.5 secs

     total energy              =      57.90466616 Ry
     Harris-Foulkes estimate   =      57.85799790 Ry
     estimated scf accuracy    <       0.16366739 Ry

     iteration #  4     ecut=    50.00 Ry     beta=0.30
     Davidson diagonalization with overlap
     ethr =  2.82E-04,  avg # of iterations =  2.4

     total cpu time spent up to now is       16.0 secs

     total energy              =      57.93207971 Ry
     Harris-Foulkes estimate   =      57.89539075 Ry
     estimated scf accuracy    <       0.06038343 Ry

     iteration #  5     ecut=    50.00 Ry     beta=0.30
     Davidson diagonalization with overlap
     ethr =  1.04E-04,  avg # of iterations =  2.7

     total cpu time spent up to now is       19.4 secs

     total energy              =      57.92211900 Ry
     Harris-Foulkes estimate   =      57.91955622 Ry
     estimated scf accuracy    <       0.00533004 Ry

     iteration #  6     ecut=    50.00 Ry     beta=0.30
     Davidson diagonalization with overlap
     ethr =  9.19E-06,  avg # of iterations =  2.6

     total cpu time spent up to now is       21.8 secs

     total energy              =      57.92112967 Ry
     Harris-Foulkes estimate   =      57.92107171 Ry
     estimated scf accuracy    <       0.00017485 Ry

     iteration #  7     ecut=    50.00 Ry     beta=0.30
     Davidson diagonalization with overlap
     ethr =  3.01E-07,  avg # of iterations =  2.6

     total cpu time spent up to now is       24.5 secs

     total energy              =      57.92111091 Ry
     Harris-Foulkes estimate   =      57.92108908 Ry
     estimated scf accuracy    <       0.00003487 Ry

     iteration #  8     ecut=    50.00 Ry     beta=0.30
     Davidson diagonalization with overlap
     ethr =  6.01E-08,  avg # of iterations =  3.0

     total cpu time spent up to now is       27.2 secs

     total energy              =      57.92109737 Ry
     Harris-Foulkes estimate   =      57.92109157 Ry
     estimated scf accuracy    <       0.00002166 Ry

     iteration #  9     ecut=    50.00 Ry     beta=0.30
     Davidson diagonalization with overlap
     ethr =  3.73E-08,  avg # of iterations =  2.0

     total cpu time spent up to now is       29.1 secs

     total energy              =      57.92109842 Ry
     Harris-Foulkes estimate   =      57.92109614 Ry
     estimated scf accuracy    <       0.00000495 Ry

     iteration # 10     ecut=    50.00 Ry     beta=0.30
     Davidson diagonalization with overlap
     ethr =  8.53E-09,  avg # of iterations =  2.3

     total cpu time spent up to now is       31.4 secs

     total energy              =      57.92109725 Ry
     Harris-Foulkes estimate   =      57.92109721 Ry
     estimated scf accuracy    <       0.00000006 Ry

     iteration # 11     ecut=    50.00 Ry     beta=0.30
     Davidson diagonalization with overlap
     ethr =  1.08E-10,  avg # of iterations =  3.1

     total cpu time spent up to now is       34.0 secs

     total energy              =      57.92109723 Ry
     Harris-Foulkes estimate   =      57.92109722 Ry
     estimated scf accuracy    <          6.1E-09 Ry

     iteration # 12     ecut=    50.00 Ry     beta=0.30
     Davidson diagonalization with overlap
     ethr =  1.05E-11,  avg # of iterations =  2.7

     total cpu time spent up to now is       36.3 secs

     End of self-consistent calculation

          k = 0.0000 0.0000 0.0000 (  1639 PWs)   bands (ev):

   -12.8066   0.9121   0.9121   0.9121   1.4307   1.4307   1.4307   3.9253
     3.9396   6.2272   6.2272   7.0682   7.0682   7.0682  10.2608  23.1509
    23.1509  23.1509  24.8098  24.8098  25.7223  25.7223  25.7223  27.4098
    27.4098  27.4098  32.6830  35.3320  35.3320  35.3320

          k =-0.2000 0.2000-0.2000 (  1606 PWs)   bands (ev):

   -12.2095  -3.4150  -0.1994  -0.1994   1.6354   2.6620   2.6620   4.3214
     4.4447   4.4447   6.1285   8.8022  11.0378  11.0378  13.2269  18.2358
    18.2358  19.2916  24.4715  24.4715  26.4700  26.4700  27.5101  27.9976
    30.2009  31.1971  31.1971  32.9261  32.9261  33.6999

          k =-0.4000 0.4000-0.4000 (  1616 PWs)   bands (ev):

   -10.4361  -7.4372  -0.6085  -0.6085   1.2393   1.2393   1.4687   2.6659
     7.6137   7.6137   9.2297  12.3986  12.3986  14.1143  15.8677  16.5914
    16.5914  18.4920  22.8473  23.2663  23.2663  25.7931  25.9170  25.9170
    27.8738  27.8738  29.6544  30.3873  30.3873  31.1279

          k = 0.0000 0.4000 0.0000 (  1607 PWs)   bands (ev):

   -12.0106  -1.7922  -1.7922  -1.3384  -0.6364   0.3631   5.1856   5.1856
     7.0299   7.4085   7.4627   8.2964   8.2964   9.6510  15.8459  17.9852
    17.9852  18.9539  20.8970  23.8748  26.4972  27.0577  27.0577  29.2356
    29.2356  30.0112  31.0270  33.0530  33.2442  33.2443

          k =-0.2000 0.6000-0.2000 (  1619 PWs)   bands (ev):

   -10.6266  -5.7138  -2.9342  -2.3641  -1.0531   2.0608   4.4735   5.1898
     6.6369   9.1761  10.3877  12.1371  12.8646  12.8928  13.7110  14.3739
    19.6253  19.6786  20.8065  21.0696  22.0636  25.2732  25.2943  26.3407
    28.1805  28.3447  29.0928  29.3551  30.8344  32.6373

          k = 0.6000-0.2000 0.6000 (  1596 PWs)   bands (ev):

    -9.1017  -7.9835  -4.1936  -1.8333  -0.5524   3.2461   4.0248   6.4654
     6.5847   7.0400   8.7232  13.5908  13.8291  14.8318  15.6900  18.7744
    18.9453  19.2229  20.3821  21.5417  22.1516  22.6536  23.3277  23.8250
    24.4317  26.7700  29.2696  29.3053  29.3513  31.0267

          k = 0.4000 0.0000 0.4000 (  1610 PWs)   bands (ev):

   -11.2187  -4.4090  -4.3297  -0.3054   1.1272   2.9655   3.3224   3.7175
     4.1641   8.1662   9.0217  11.4343  11.4842  12.3293  15.7517  17.1385
    18.5893  18.8875  19.7579  21.6150  25.4221  26.1226  26.8097  27.1952
    27.2421  28.0543  30.6930  30.9945  32.4178  33.0916

          k = 0.0000 0.8000 0.0000 (  1624 PWs)   bands (ev):

    -9.6401  -5.7786  -3.2942  -3.2942  -2.1240  -2.0573   8.7860   8.7860
     9.4347  11.7353  12.4034  12.4034  12.4034  13.2680  13.4089  13.4089
    13.4274  17.2099  20.4061  20.5744  20.5744  21.7125  24.7501  26.5691
    28.7486  29.0359  29.0359  31.9565  32.5463  32.5463

          k = 0.8000 0.0000 0.8000 (  1622 PWs)   bands (ev):

    -7.5813  -7.4936  -6.3447  -3.1106  -1.9074   1.3423   7.5412   7.6079
     8.3302   8.5365  12.9090  13.2495  14.3076  14.7794  15.6183  15.7573
    17.0512  17.9137  18.3896  18.3977  20.5883  21.1263  23.1352  23.9486
    28.3081  28.6723  28.8486  30.0854  30.9747  31.6802

          k = 0.6000-0.2000 1.0000 (  1616 PWs)   bands (ev):

    -8.8715  -6.0336  -5.8437  -4.7978   1.7004   1.8816   3.2263   6.6723
     8.7872   9.6542  11.2153  11.3548  13.4221  15.1663  16.4831  17.0162
    17.8386  18.1081  19.6346  20.6627  21.2180  23.4500  24.0745  24.7578
    25.7314  25.8447  26.7009  27.0760  28.9386  32.3840

     the Fermi energy is    31.9244 ev

!    total energy              =      57.92109722 Ry
     Harris-Foulkes estimate   =      57.92109722 Ry
     estimated scf accuracy    <          3.3E-11 Ry

     The total energy is the sum of the following terms:

     one-electron contribution =     130.28626251 Ry
     hartree contribution      =       2.98955156 Ry
     xc contribution           =     -58.56741668 Ry
     ewald contribution        =     -16.79708774 Ry
     smearing contrib. (-TS)   =       0.00978757 Ry

     convergence has been achieved in  12 iterations

     Forces acting on atoms (Ry/au):

     atom    1 type  1   force =    -0.00000000    0.00000000    0.00000000
     atom    2 type  1   force =     0.00000000    0.00000000    0.00000000

     Total force =     0.000000     Total SCF correction =     0.000000


     entering subroutine stress ...

          total   stress  (Ry/bohr**3)                   (kbar)     P=38886.06
   0.26434210  -0.00000000  -0.00000000      38886.06     -0.00     -0.00
  -0.00000000   0.26434210   0.00000000         -0.00  38886.06      0.00
  -0.00000000   0.00000000   0.26434210         -0.00      0.00  38886.06


     Writing output data file Si.save

     init_run     :      0.94s CPU      1.03s WALL (       1 calls)
     electrons    :     34.32s CPU     35.26s WALL (       1 calls)
     forces       :      0.11s CPU      0.11s WALL (       1 calls)
     stress       :      0.57s CPU      0.58s WALL (       1 calls)

     Called by init_run:
     wfcinit      :      0.81s CPU      0.84s WALL (       1 calls)
     potinit      :      0.04s CPU      0.05s WALL (       1 calls)

     Called by electrons:
     c_bands      :     30.18s CPU     30.97s WALL (      12 calls)
     sum_band     :      3.71s CPU      3.85s WALL (      12 calls)
     v_of_rho     :      0.42s CPU      0.43s WALL (      13 calls)
     mix_rho      :      0.03s CPU      0.03s WALL (      12 calls)

     Called by c_bands:
     init_us_2    :      0.33s CPU      0.35s WALL (     270 calls)
     cegterg      :     29.91s CPU     30.68s WALL (     120 calls)

     Called by *egterg:
     h_psi        :     22.41s CPU     23.00s WALL (     505 calls)
     g_psi        :      0.05s CPU      0.05s WALL (     375 calls)
     cdiaghg      :      1.40s CPU      1.43s WALL (     495 calls)

     Called by h_psi:
     add_vuspsi   :      0.63s CPU      0.65s WALL (     505 calls)

     General routines
     calbec       :      0.75s CPU      0.76s WALL (     525 calls)
     fft          :      0.17s CPU      0.17s WALL (     150 calls)
     fftw         :     23.04s CPU     23.68s WALL (   26030 calls)
     davcio       :      0.00s CPU      0.00s WALL (      10 calls)

     Parallel routines
     fft_scatter  :      0.61s CPU      0.62s WALL (   26180 calls)

     PWSCF        :    36.03s CPU        37.08s WALL


   This run was terminated on:  22: 3:33  13Feb2023            

=------------------------------------------------------------------------------=
   JOB DONE.
=------------------------------------------------------------------------------=
