
     Program PWSCF v.5.1 starts on 13Feb2023 at 20:40:33 

     This program is part of the open-source Quantum ESPRESSO suite
     for quantum simulation of materials; please cite
         "P. Giannozzi et al., J. Phys.:Condens. Matter 21 395502 (2009);
          URL http://www.quantum-espresso.org", 
     in publications or presentations arising from this work. More details at
     http://www.quantum-espresso.org/quote

     Parallel version (MPI), running on     1 processors
     Waiting for input...
     Reading input from standard input

     Current dimensions of program PWSCF are:
     Max number of different atomic species (ntypx) = 10
     Max number of k-points (npk) =  40000
     Max angular momentum in pseudopotentials (lmaxx) =  3

     Atomic positions and unit cell read from directory:
     ./out/Si.save/

               file Si.pbe-mt_fhi.UPF: wavefunction(s)  4f renormalized

     Subspace diagonalization in iterative solution of the eigenvalue problem:
     a serial algorithm will be used


     G-vector sticks info
     --------------------
     sticks:   dense  smooth     PW     G-vecs:    dense   smooth      PW
     Sum         733     733    211                12939    12939    2109



     bravais-lattice index     =            2
     lattice parameter (alat)  =      10.2623  a.u.
     unit-cell volume          =     270.1967 (a.u.)^3
     number of atoms/cell      =            2
     number of atomic types    =            1
     number of electrons       =         2.00
     number of Kohn-Sham states=           10
     kinetic-energy cutoff     =      50.0000  Ry
     charge density cutoff     =     200.0000  Ry
     Exchange-correlation      = PBE ( 1  4  3  4 0)

     celldm(1)=  10.262347  celldm(2)=   0.000000  celldm(3)=   0.000000
     celldm(4)=   0.000000  celldm(5)=   0.000000  celldm(6)=   0.000000

     crystal axes: (cart. coord. in units of alat)
               a(1) = (  -0.500000   0.000000   0.500000 )  
               a(2) = (   0.000000   0.500000   0.500000 )  
               a(3) = (  -0.500000   0.500000   0.000000 )  

     reciprocal axes: (cart. coord. in units 2 pi/alat)
               b(1) = ( -1.000000 -1.000000  1.000000 )  
               b(2) = (  1.000000  1.000000  1.000000 )  
               b(3) = ( -1.000000  1.000000 -1.000000 )  


     PseudoPot. # 1 for Si read from file:
     /home/acedemo/psudo/Si.pbe-mt_fhi.UPF
     MD5 check sum: 259057c2adf9952f9ced37ae3d9e311d
     Pseudo is Norm-conserving, Zval =  4.0
     Generated using FHI98PP, converted with fhi2upf.x v.5.0.2
     Using radial grid of  495 points,  3 beta functions with: 
                l(1) =   0
                l(2) =   1
                l(3) =   3

     atomic species   valence    mass     pseudopotential
        Si             4.00    28.08550     Si( 1.00)

     48 Sym. Ops., with inversion, found (24 have fractional translation)



   Cartesian axes

     site n.     atom                  positions (alat units)
         1           Si  tau(   1) = (   0.0000000   0.0000000   0.0000000  )
         2           Si  tau(   2) = (   0.2500000   0.2500000   0.2500000  )

     number of k points=    51  Marzari-Vanderbilt smearing, width (Ry)=  0.0500
                       cart. coord. in units 2pi/alat
        k(    1) = (   0.5000000   0.5000000   0.5000000), wk =   0.0000000
        k(    2) = (   0.4500000   0.4500000   0.4500000), wk =   0.0014779
        k(    3) = (   0.4000000   0.4000000   0.4000000), wk =   0.0029558
        k(    4) = (   0.3500000   0.3500000   0.3500000), wk =   0.0044337
        k(    5) = (   0.3000000   0.3000000   0.3000000), wk =   0.0059116
        k(    6) = (   0.2500000   0.2500000   0.2500000), wk =   0.0073895
        k(    7) = (   0.2000000   0.2000000   0.2000000), wk =   0.0088674
        k(    8) = (   0.1500000   0.1500000   0.1500000), wk =   0.0103453
        k(    9) = (   0.1000000   0.1000000   0.1000000), wk =   0.0118232
        k(   10) = (   0.0500000   0.0500000   0.0500000), wk =   0.0133011
        k(   11) = (   0.0000000   0.0000000   0.0000000), wk =   0.0147790
        k(   12) = (   0.0000000   0.1000000   0.0000000), wk =   0.0168691
        k(   13) = (   0.0000000   0.2000000   0.0000000), wk =   0.0189591
        k(   14) = (   0.0000000   0.3000000   0.0000000), wk =   0.0210492
        k(   15) = (   0.0000000   0.4000000   0.0000000), wk =   0.0231392
        k(   16) = (   0.0000000   0.5000000   0.0000000), wk =   0.0252293
        k(   17) = (   0.0000000   0.6000000   0.0000000), wk =   0.0273194
        k(   18) = (   0.0000000   0.7000000   0.0000000), wk =   0.0294094
        k(   19) = (   0.0000000   0.8000000   0.0000000), wk =   0.0314995
        k(   20) = (   0.0000000   0.9000000   0.0000000), wk =   0.0335896
        k(   21) = (   0.0000000   1.0000000   0.0000000), wk =   0.0356796
        k(   22) = (   0.0000000   0.9750000   0.0750000), wk =   0.0370621
        k(   23) = (   0.0000000   0.9500000   0.1500000), wk =   0.0384445
        k(   24) = (  -0.0000000   0.9250000   0.2250000), wk =   0.0398270
        k(   25) = (  -0.0000000   0.9000000   0.3000000), wk =   0.0412094
        k(   26) = (   0.0000000   0.8750000   0.3750000), wk =   0.0425919
        k(   27) = (   0.0000000   0.8500000   0.4500000), wk =   0.0439743
        k(   28) = (   0.0000000   0.8250000   0.5250000), wk =   0.0453568
        k(   29) = (  -0.0000000   0.8000000   0.6000000), wk =   0.0467392
        k(   30) = (  -0.0000000   0.7750000   0.6750000), wk =   0.0481217
        k(   31) = (   0.0000000   0.7500000   0.7500000), wk =   0.0495041
        k(   32) = (   0.0000000   0.7250000   0.7750000), wk =   0.0500266
        k(   33) = (   0.0000000   0.7000000   0.8000000), wk =   0.0505491
        k(   34) = (   0.0000000   0.6750000   0.8250000), wk =   0.0510717
        k(   35) = (   0.0000000   0.6500000   0.8500000), wk =   0.0515942
        k(   36) = (   0.0000000   0.6250000   0.8750000), wk =   0.0521167
        k(   37) = (   0.0000000   0.6000000   0.9000000), wk =   0.0526392
        k(   38) = (   0.0000000   0.5750000   0.9250000), wk =   0.0531617
        k(   39) = (   0.0000000   0.5500000   0.9500000), wk =   0.0536842
        k(   40) = (   0.0000000   0.5250000   0.9750000), wk =   0.0542067
        k(   41) = (   0.0000000   0.5000000   1.0000000), wk =   0.0547293
        k(   42) = (   0.0000000   0.4500000   0.9000000), wk =   0.0574942
        k(   43) = (  -0.0000000   0.4000000   0.8000000), wk =   0.0602591
        k(   44) = (  -0.0000000   0.3500000   0.7000000), wk =   0.0630239
        k(   45) = (  -0.0000000   0.3000000   0.6000000), wk =   0.0657888
        k(   46) = (   0.0000000   0.2500000   0.5000000), wk =   0.0685537
        k(   47) = (   0.0000000   0.2000000   0.4000000), wk =   0.0713186
        k(   48) = (   0.0000000   0.1500000   0.3000000), wk =   0.0740835
        k(   49) = (  -0.0000000   0.1000000   0.2000000), wk =   0.0768484
        k(   50) = (  -0.0000000   0.0500000   0.1000000), wk =   0.0796133
        k(   51) = (   0.0000000   0.0000000   0.0000000), wk =   0.0823782

     Dense  grid:    12939 G-vectors     FFT dimensions: (  36,  36,  36)

     Largest allocated arrays     est. size (Mb)     dimensions
        Kohn-Sham Wavefunctions         0.25 Mb     (    1639,   10)
        NL pseudopotentials             0.55 Mb     (    1639,   22)
        Each V/rho on FFT grid          0.71 Mb     (   46656)
        Each G-vector array             0.10 Mb     (   12939)
        G-vector shells                 0.00 Mb     (     180)
     Largest temporary arrays     est. size (Mb)     dimensions
        Auxiliary wavefunctions         1.00 Mb     (    1639,   40)
        Each subspace H/S matrix        0.02 Mb     (      40,   40)
        Each <psi_i|beta_j> matrix      0.00 Mb     (      22,   10)

     The potential is recalculated from file :
     ./out/Si.save/charge-density.dat

     Starting wfc are   32 randomized atomic wfcs

     Band Structure Calculation
     Davidson diagonalization with overlap

     ethr =  8.00E-11,  avg # of iterations = 14.3

     total cpu time spent up to now is       30.2 secs

     End of band structure calculation

          k = 0.5000 0.5000 0.5000 (  1622 PWs)   bands (ev):

    -2.9191   0.3892   5.3064   5.3064   9.2863  11.8210  11.8210  17.6221
    18.4516  18.4516

          k = 0.4500 0.4500 0.4500 (  1610 PWs)   bands (ev):

    -3.0066   0.5306   5.3220   5.3220   9.3031  11.8164  11.8164  17.2541
    17.9102  17.9102

          k = 0.4000 0.4000 0.4000 (  1616 PWs)   bands (ev):

    -3.2301   0.9153   5.3681   5.3681   9.3523  11.7971  11.7971  16.4583
    17.1925  17.1925

          k = 0.3500 0.3500 0.3500 (  1610 PWs)   bands (ev):

    -3.5180   1.4693   5.4429   5.4429   9.4307  11.7471  11.7471  15.5201
    16.5832  16.5832

          k = 0.3000 0.3000 0.3000 (  1615 PWs)   bands (ev):

    -3.8165   2.1352   5.5429   5.5429   9.5319  11.6459  11.6459  14.5374
    16.1309  16.1309

          k = 0.2500 0.2500 0.2500 (  1618 PWs)   bands (ev):

    -4.0945   2.8753   5.6624   5.6624   9.6450  11.4812  11.4812  13.5508
    15.8550  15.8550

          k = 0.2000 0.2000 0.2000 (  1606 PWs)   bands (ev):

    -4.3352   3.6617   5.7929   5.7929   9.7515  11.2628  11.2628  12.5905
    15.7451  15.7451

          k = 0.1500 0.1500 0.1500 (  1600 PWs)   bands (ev):

    -4.5291   4.4646   5.9223   5.9223   9.8135  11.0241  11.0241  11.7049
    15.7607  15.7607

          k = 0.1000 0.1000 0.1000 (  1606 PWs)   bands (ev):

    -4.6706   5.2358   6.0349   6.0349   9.7410  10.8096  10.8096  11.0118
    15.8431  15.8431

          k = 0.0500 0.0500 0.0500 (  1630 PWs)   bands (ev):

    -4.7566   5.8696   6.1126   6.1126   9.4538  10.6610  10.6610  10.6782
    15.9284  15.9284

          k = 0.0000 0.0000 0.0000 (  1639 PWs)   bands (ev):

    -4.7854   6.1406   6.1406   6.1406   9.2591  10.6078  10.6078  10.6078
    15.9640  15.9640

          k = 0.0000 0.1000 0.0000 (  1627 PWs)   bands (ev):

    -4.7470   5.8580   6.0632   6.0632   9.5376  10.5662  10.7378  10.7378
    15.8245  16.0105

          k = 0.0000 0.2000 0.0000 (  1599 PWs)   bands (ev):

    -4.6318   5.2031   5.8575   5.8575  10.1636  10.4515  11.1007  11.1007
    15.4806  16.1500

          k = 0.0000 0.3000 0.0000 (  1607 PWs)   bands (ev):

    -4.4407   4.4059   5.5791   5.5791  10.2901  10.8451  11.6401  11.6401
    15.1114  16.3823

          k = 0.0000 0.4000 0.0000 (  1607 PWs)   bands (ev):

    -4.1750   3.5644   5.2784   5.2784  10.1139  11.3446  12.3041  12.3041
    14.9561  16.7070

          k = 0.0000 0.5000 0.0000 (  1612 PWs)   bands (ev):

    -3.8366   2.7170   4.9899   4.9899   9.9523  11.4693  13.0566  13.0566
    15.2340  17.1237

          k = 0.0000 0.6000 0.0000 (  1620 PWs)   bands (ev):

    -3.4279   1.8815   4.7349   4.7349   9.8293  11.2634  13.8734  13.8734
    15.9211  17.6315

          k = 0.0000 0.7000 0.0000 (  1632 PWs)   bands (ev):

    -2.9521   1.0687   4.5266   4.5266   9.7627  10.9184  14.7367  14.7367
    16.8362  18.2298

          k = 0.0000 0.8000 0.0000 (  1624 PWs)   bands (ev):

    -2.4127   0.2863   4.3732   4.3732   9.7654  10.5609  15.6264  15.6264
    17.8546  18.9172

          k = 0.0000 0.9000 0.0000 (  1608 PWs)   bands (ev):

    -1.8141  -0.4591   4.2794   4.2794   9.8457  10.2489  16.4913  16.4913
    18.9127  18.9172

          k = 0.0000 1.0000 0.0000 (  1604 PWs)   bands (ev):

    -1.1611  -1.1611   4.2478   4.2478  10.0073  10.0073  17.0083  17.0083
    18.3854  18.3854

          k = 0.0000 0.9750 0.0750 (  1618 PWs)   bands (ev):

    -1.3249  -0.9886   4.2250   4.2286  10.0392  10.1388  16.7694  16.8784
    18.1586  18.2627

          k = 0.0000 0.9500 0.1500 (  1622 PWs)   bands (ev):

    -1.4725  -0.8173   4.1570   4.1847  10.2318  10.4228  16.0360  16.5944
    17.7079  18.2583

          k =-0.0000 0.9250 0.2250 (  1622 PWs)   bands (ev):

    -1.5982  -0.6592   4.0537   4.1418  10.5697  10.8385  15.0934  16.2025
    17.2604  18.3405

          k =-0.0000 0.9000 0.3000 (  1623 PWs)   bands (ev):

    -1.6981  -0.5272   3.9320   4.1258  11.0302  11.3602  14.1259  15.7167
    16.8827  18.3433

          k = 0.0000 0.8750 0.3750 (  1614 PWs)   bands (ev):

    -1.7697  -0.4329   3.8097   4.1550  11.5899  11.9436  13.2239  15.1747
    16.5660  18.1953

          k = 0.0000 0.8500 0.4500 (  1612 PWs)   bands (ev):

    -1.8111  -0.3833   3.7016   4.2341  12.1246  12.2271  12.8703  14.6169
    16.2844  17.9211

          k = 0.0000 0.8250 0.5250 (  1611 PWs)   bands (ev):

    -1.8212  -0.3792   3.6190   4.3500  11.4680  12.9201  13.5155  14.0720
    16.0223  17.5703

          k =-0.0000 0.8000 0.6000 (  1614 PWs)   bands (ev):

    -1.7991  -0.4163   3.5694   4.4708  10.8699  13.4728  13.7330  14.2785
    15.7749  17.1878

          k =-0.0000 0.7750 0.6750 (  1621 PWs)   bands (ev):

    -1.7444  -0.4880   3.5575   4.5510  10.4561  13.0329  14.4353  15.0220
    15.5526  16.8411

          k = 0.0000 0.7500 0.7500 (  1624 PWs)   bands (ev):

    -1.6567  -0.5887   3.5854   4.5460  10.2792  12.5833  15.0359  15.5091
    15.5098  16.7549

          k = 0.0000 0.7250 0.7750 (  1616 PWs)   bands (ev):

    -1.6512  -0.5934   3.5884   4.5323  10.3116  12.5862  14.9237  15.4260
    15.6220  16.8345

          k = 0.0000 0.7000 0.8000 (  1621 PWs)   bands (ev):

    -1.6346  -0.6074   3.5973   4.4923  10.4073  12.5948  14.7094  15.2198
    15.8383  17.0269

          k = 0.0000 0.6750 0.8250 (  1620 PWs)   bands (ev):

    -1.6069  -0.6312   3.6121   4.4302  10.5626  12.6088  14.4737  14.9550
    16.0772  17.2645

          k = 0.0000 0.6500 0.8500 (  1616 PWs)   bands (ev):

    -1.5682  -0.6650   3.6326   4.3514  10.7720  12.6281  14.2344  14.6655
    16.3214  17.5063

          k = 0.0000 0.6250 0.8750 (  1616 PWs)   bands (ev):

    -1.5185  -0.7096   3.6587   4.2626  11.0294  12.6520  13.9971  14.3664
    16.5653  17.7240

          k = 0.0000 0.6000 0.9000 (  1613 PWs)   bands (ev):

    -1.4579  -0.7653   3.6902   4.1700  11.3283  12.6795  13.7654  14.0654
    16.8060  17.8899

          k = 0.0000 0.5750 0.9250 (  1615 PWs)   bands (ev):

    -1.3863  -0.8328   3.7268   4.0794  11.6625  12.7086  13.5426  13.7674
    17.0413  17.9753

          k = 0.0000 0.5500 0.9500 (  1615 PWs)   bands (ev):

    -1.3040  -0.9122   3.7682   3.9958  12.0248  12.7342  13.3348  13.4770
    17.2688  17.9622

          k = 0.0000 0.5250 0.9750 (  1615 PWs)   bands (ev):

    -1.2108  -1.0037   3.8140   3.9230  12.4019  12.7418  13.1574  13.2049
    17.4857  17.8578

          k = 0.0000 0.5000 1.0000 (  1628 PWs)   bands (ev):

    -1.1071  -1.1071   3.8638   3.8638  12.6933  12.6933  13.0491  13.0491
    17.6880  17.6880

          k = 0.0000 0.4500 0.9000 (  1616 PWs)   bands (ev):

    -1.5811  -0.6261   3.7358   4.0949  12.2650  12.3489  12.8637  14.1933
    16.7696  18.1184

          k =-0.0000 0.4000 0.8000 (  1616 PWs)   bands (ev):

    -2.1073  -0.0566   3.7671   4.3654  11.7591  12.0424  12.7792  15.3683
    16.0404  17.6809

          k =-0.0000 0.3500 0.7000 (  1618 PWs)   bands (ev):

    -2.6466   0.5992   3.9395   4.6597  11.3422  11.7622  12.7911  14.6798
    16.9666  17.2924

          k =-0.0000 0.3000 0.6000 (  1609 PWs)   bands (ev):

    -3.1641   1.3382   4.2236   4.9619  11.0212  11.4860  12.8798  13.7840
    16.2735  18.8062

          k = 0.0000 0.2500 0.5000 (  1610 PWs)   bands (ev):

    -3.6331   2.1549   4.5872   5.2570  10.7951  11.1916  12.9534  12.9692
    15.6542  17.6711

          k = 0.0000 0.2000 0.4000 (  1613 PWs)   bands (ev):

    -4.0354   3.0400   4.9960   5.5317  10.6578  10.8681  12.2100  12.8295
    15.2156  16.7897

          k = 0.0000 0.1500 0.3000 (  1607 PWs)   bands (ev):

    -4.3584   3.9753   5.4098   5.7733  10.5136  10.5955  11.5716  12.2079
    15.2000  16.3116

          k =-0.0000 0.1000 0.2000 (  1600 PWs)   bands (ev):

    -4.5941   4.9186   5.7793   5.9671  10.1014  10.5860  11.0642  11.3687
    15.4974  16.0856

          k =-0.0000 0.0500 0.1000 (  1623 PWs)   bands (ev):

    -4.7374   5.7521   6.0433   6.0953   9.5773  10.5994  10.7276  10.7831
    15.8238  15.9899

          k = 0.0000 0.0000 0.0000 (  1639 PWs)   bands (ev):

    -4.7854   6.1406   6.1406   6.1406   9.2591  10.6078  10.6078  10.6078
    15.9640  15.9640

     Writing output data file Si.save

     init_run     :      0.20s CPU      0.26s WALL (       1 calls)
     electrons    :     26.34s CPU     28.25s WALL (       1 calls)

     Called by init_run:
     wfcinit      :      0.00s CPU      0.00s WALL (       1 calls)
     potinit      :      0.06s CPU      0.07s WALL (       1 calls)

     Called by electrons:
     c_bands      :     26.34s CPU     28.25s WALL (       1 calls)
     v_of_rho     :      0.05s CPU      0.06s WALL (       1 calls)

     Called by c_bands:
     init_us_2    :      0.09s CPU      0.09s WALL (      51 calls)
     cegterg      :     20.37s CPU     21.89s WALL (      53 calls)

     Called by *egterg:
     h_psi        :     22.08s CPU     23.68s WALL (     831 calls)
     g_psi        :      0.05s CPU      0.05s WALL (     727 calls)
     cdiaghg      :      0.38s CPU      0.42s WALL (     778 calls)

     Called by h_psi:
     add_vuspsi   :      0.63s CPU      0.67s WALL (     831 calls)

     General routines
     calbec       :      0.70s CPU      0.79s WALL (     831 calls)
     fft          :      0.02s CPU      0.03s WALL (      10 calls)
     fftw         :     19.61s CPU     20.99s WALL (   15024 calls)
     davcio       :      0.00s CPU      0.01s WALL (      51 calls)

     Parallel routines
     fft_scatter  :      0.48s CPU      0.48s WALL (   15034 calls)

     PWSCF        :    28.21s CPU        30.44s WALL


   This run was terminated on:  20:41: 3  13Feb2023            

=------------------------------------------------------------------------------=
   JOB DONE.
=------------------------------------------------------------------------------=
