
     Program PWSCF v.5.1 starts on 13Feb2023 at 20:39:53 

     This program is part of the open-source Quantum ESPRESSO suite
     for quantum simulation of materials; please cite
         "P. Giannozzi et al., J. Phys.:Condens. Matter 21 395502 (2009);
          URL http://www.quantum-espresso.org", 
     in publications or presentations arising from this work. More details at
     http://www.quantum-espresso.org/quote

     Parallel version (MPI), running on     1 processors
     Waiting for input...
     Reading input from standard input

     Current dimensions of program PWSCF are:
     Max number of different atomic species (ntypx) = 10
     Max number of k-points (npk) =  40000
     Max angular momentum in pseudopotentials (lmaxx) =  3

     Atomic positions and unit cell read from directory:
     ./out/Si.save/

               file Si.pbe-mt_fhi.UPF: wavefunction(s)  4f renormalized

     Subspace diagonalization in iterative solution of the eigenvalue problem:
     a serial algorithm will be used


     G-vector sticks info
     --------------------
     sticks:   dense  smooth     PW     G-vecs:    dense   smooth      PW
     Sum         733     733    223                12939    12939    2229



     bravais-lattice index     =            2
     lattice parameter (alat)  =      10.2623  a.u.
     unit-cell volume          =     270.1967 (a.u.)^3
     number of atoms/cell      =            2
     number of atomic types    =            1
     number of electrons       =         2.00
     number of Kohn-Sham states=           10
     kinetic-energy cutoff     =      50.0000  Ry
     charge density cutoff     =     200.0000  Ry
     Exchange-correlation      = PBE ( 1  4  3  4 0)

     celldm(1)=  10.262347  celldm(2)=   0.000000  celldm(3)=   0.000000
     celldm(4)=   0.000000  celldm(5)=   0.000000  celldm(6)=   0.000000

     crystal axes: (cart. coord. in units of alat)
               a(1) = (  -0.500000   0.000000   0.500000 )  
               a(2) = (   0.000000   0.500000   0.500000 )  
               a(3) = (  -0.500000   0.500000   0.000000 )  

     reciprocal axes: (cart. coord. in units 2 pi/alat)
               b(1) = ( -1.000000 -1.000000  1.000000 )  
               b(2) = (  1.000000  1.000000  1.000000 )  
               b(3) = ( -1.000000  1.000000 -1.000000 )  


     PseudoPot. # 1 for Si read from file:
     /home/acedemo/psudo/Si.pbe-mt_fhi.UPF
     MD5 check sum: 259057c2adf9952f9ced37ae3d9e311d
     Pseudo is Norm-conserving, Zval =  4.0
     Generated using FHI98PP, converted with fhi2upf.x v.5.0.2
     Using radial grid of  495 points,  3 beta functions with: 
                l(1) =   0
                l(2) =   1
                l(3) =   3

     atomic species   valence    mass     pseudopotential
        Si             4.00    28.08550     Si( 1.00)

     48 Sym. Ops., with inversion, found (24 have fractional translation)



   Cartesian axes

     site n.     atom                  positions (alat units)
         1           Si  tau(   1) = (   0.0000000   0.0000000   0.0000000  )
         2           Si  tau(   2) = (   0.2500000   0.2500000   0.2500000  )

     number of k points=    72 (tetrahedron method)
                       cart. coord. in units 2pi/alat
        k(    1) = (   0.0000000   0.0000000   0.0000000), wk =   0.0011574
        k(    2) = (  -0.0833333   0.0833333  -0.0833333), wk =   0.0092593
        k(    3) = (  -0.1666667   0.1666667  -0.1666667), wk =   0.0092593
        k(    4) = (  -0.2500000   0.2500000  -0.2500000), wk =   0.0092593
        k(    5) = (  -0.3333333   0.3333333  -0.3333333), wk =   0.0092593
        k(    6) = (  -0.4166667   0.4166667  -0.4166667), wk =   0.0092593
        k(    7) = (   0.5000000  -0.5000000   0.5000000), wk =   0.0046296
        k(    8) = (   0.0000000   0.1666667   0.0000000), wk =   0.0069444
        k(    9) = (  -0.0833333   0.2500000  -0.0833333), wk =   0.0277778
        k(   10) = (  -0.1666667   0.3333333  -0.1666667), wk =   0.0277778
        k(   11) = (  -0.2500000   0.4166667  -0.2500000), wk =   0.0277778
        k(   12) = (  -0.3333333   0.5000000  -0.3333333), wk =   0.0277778
        k(   13) = (   0.5833333  -0.4166667   0.5833333), wk =   0.0277778
        k(   14) = (   0.5000000  -0.3333333   0.5000000), wk =   0.0277778
        k(   15) = (   0.4166667  -0.2500000   0.4166667), wk =   0.0277778
        k(   16) = (   0.3333333  -0.1666667   0.3333333), wk =   0.0277778
        k(   17) = (   0.2500000  -0.0833333   0.2500000), wk =   0.0277778
        k(   18) = (   0.1666667  -0.0000000   0.1666667), wk =   0.0138889
        k(   19) = (   0.0000000   0.3333333   0.0000000), wk =   0.0069444
        k(   20) = (  -0.0833333   0.4166667  -0.0833333), wk =   0.0277778
        k(   21) = (  -0.1666667   0.5000000  -0.1666667), wk =   0.0277778
        k(   22) = (  -0.2500000   0.5833333  -0.2500000), wk =   0.0277778
        k(   23) = (   0.6666667  -0.3333333   0.6666667), wk =   0.0277778
        k(   24) = (   0.5833333  -0.2500000   0.5833333), wk =   0.0277778
        k(   25) = (   0.5000000  -0.1666667   0.5000000), wk =   0.0277778
        k(   26) = (   0.4166667  -0.0833333   0.4166667), wk =   0.0277778
        k(   27) = (   0.3333333   0.0000000   0.3333333), wk =   0.0138889
        k(   28) = (   0.0000000   0.5000000   0.0000000), wk =   0.0069444
        k(   29) = (  -0.0833333   0.5833333  -0.0833333), wk =   0.0277778
        k(   30) = (  -0.1666667   0.6666667  -0.1666667), wk =   0.0277778
        k(   31) = (   0.7500000  -0.2500000   0.7500000), wk =   0.0277778
        k(   32) = (   0.6666667  -0.1666667   0.6666667), wk =   0.0277778
        k(   33) = (   0.5833333  -0.0833333   0.5833333), wk =   0.0277778
        k(   34) = (   0.5000000   0.0000000   0.5000000), wk =   0.0138889
        k(   35) = (   0.0000000   0.6666667   0.0000000), wk =   0.0069444
        k(   36) = (  -0.0833333   0.7500000  -0.0833333), wk =   0.0277778
        k(   37) = (   0.8333333  -0.1666667   0.8333333), wk =   0.0277778
        k(   38) = (   0.7500000  -0.0833333   0.7500000), wk =   0.0277778
        k(   39) = (   0.6666667   0.0000000   0.6666667), wk =   0.0138889
        k(   40) = (   0.0000000   0.8333333   0.0000000), wk =   0.0069444
        k(   41) = (   0.9166667  -0.0833333   0.9166667), wk =   0.0277778
        k(   42) = (   0.8333333   0.0000000   0.8333333), wk =   0.0138889
        k(   43) = (   0.0000000  -1.0000000   0.0000000), wk =   0.0034722
        k(   44) = (  -0.1666667   0.3333333   0.0000000), wk =   0.0277778
        k(   45) = (  -0.2500000   0.4166667  -0.0833333), wk =   0.0555556
        k(   46) = (  -0.3333333   0.5000000  -0.1666667), wk =   0.0555556
        k(   47) = (   0.5833333  -0.4166667   0.7500000), wk =   0.0555556
        k(   48) = (   0.5000000  -0.3333333   0.6666667), wk =   0.0277778
        k(   49) = (  -0.1666667   0.5000000   0.0000000), wk =   0.0277778
        k(   50) = (  -0.2500000   0.5833333  -0.0833333), wk =   0.0555556
        k(   51) = (   0.6666667  -0.3333333   0.8333333), wk =   0.0555556
        k(   52) = (   0.5833333  -0.2500000   0.7500000), wk =   0.0555556
        k(   53) = (   0.5000000  -0.1666667   0.6666667), wk =   0.0555556
        k(   54) = (   0.4166667  -0.0833333   0.5833333), wk =   0.0555556
        k(   55) = (   0.3333333   0.0000000   0.5000000), wk =   0.0277778
        k(   56) = (  -0.1666667   0.6666667  -0.0000000), wk =   0.0277778
        k(   57) = (   0.7500000  -0.2500000   0.9166667), wk =   0.0555556
        k(   58) = (   0.6666667  -0.1666667   0.8333333), wk =   0.0555556
        k(   59) = (   0.5833333  -0.0833333   0.7500000), wk =   0.0555556
        k(   60) = (   0.5000000   0.0000000   0.6666667), wk =   0.0277778
        k(   61) = (   0.8333333  -0.1666667   1.0000000), wk =   0.0277778
        k(   62) = (   0.7500000  -0.0833333   0.9166667), wk =   0.0555556
        k(   63) = (   0.6666667   0.0000000   0.8333333), wk =   0.0277778
        k(   64) = (  -0.1666667  -1.0000000   0.0000000), wk =   0.0138889
        k(   65) = (   0.6666667  -0.3333333   1.0000000), wk =   0.0277778
        k(   66) = (   0.5833333  -0.2500000   0.9166667), wk =   0.0555556
        k(   67) = (   0.5000000  -0.1666667   0.8333333), wk =   0.0277778
        k(   68) = (   0.6666667  -0.1666667   1.0000000), wk =   0.0277778
        k(   69) = (   0.5833333  -0.0833333   0.9166667), wk =   0.0555556
        k(   70) = (   0.5000000   0.0000000   0.8333333), wk =   0.0277778
        k(   71) = (  -0.3333333  -1.0000000   0.0000000), wk =   0.0138889
        k(   72) = (  -0.5000000  -1.0000000   0.0000000), wk =   0.0069444

     Dense  grid:    12939 G-vectors     FFT dimensions: (  36,  36,  36)

     Largest allocated arrays     est. size (Mb)     dimensions
        Kohn-Sham Wavefunctions         0.25 Mb     (    1639,   10)
        NL pseudopotentials             0.55 Mb     (    1639,   22)
        Each V/rho on FFT grid          0.71 Mb     (   46656)
        Each G-vector array             0.10 Mb     (   12939)
        G-vector shells                 0.00 Mb     (     180)
     Largest temporary arrays     est. size (Mb)     dimensions
        Auxiliary wavefunctions         1.00 Mb     (    1639,   40)
        Each subspace H/S matrix        0.02 Mb     (      40,   40)
        Each <psi_i|beta_j> matrix      0.00 Mb     (      22,   10)

     The potential is recalculated from file :
     ./out/Si.save/charge-density.dat

     Starting wfc are   32 randomized atomic wfcs

     Band Structure Calculation
     Davidson diagonalization with overlap

     ethr =  8.00E-11,  avg # of iterations = 15.2

     total cpu time spent up to now is       32.9 secs

     End of band structure calculation

          k = 0.0000 0.0000 0.0000 (  1639 PWs)   bands (ev):

    -4.7854   6.1406   6.1406   6.1406   9.2591  10.6078  10.6078  10.6078
    15.9640  15.9640

          k =-0.0833 0.0833-0.0833 (  1612 PWs)   bands (ev):

    -4.7055   5.4706   6.0655   6.0655   9.6644  10.7510  10.7510  10.8580
    15.8742  15.8742

          k =-0.1667 0.1667-0.1667 (  1591 PWs)   bands (ev):

    -4.4701   4.1975   5.8802   5.8802   9.8017  11.1032  11.1032  11.9868
    15.7450  15.7450

          k =-0.2500 0.2500-0.2500 (  1618 PWs)   bands (ev):

    -4.0945   2.8753   5.6624   5.6624   9.6450  11.4812  11.4812  13.5508
    15.8550  15.8550

          k =-0.3333 0.3333-0.3333 (  1616 PWs)   bands (ev):

    -3.6182   1.6810   5.4737   5.4737   9.4623  11.7200  11.7200  15.1949
    16.4135  16.4135

          k =-0.4167 0.4167-0.4167 (  1616 PWs)   bands (ev):

    -3.1450   0.7647   5.3494   5.3494   9.3325  11.8060  11.8060  16.7477
    17.4235  17.4235

          k = 0.5000-0.5000 0.5000 (  1622 PWs)   bands (ev):

    -2.9191   0.3892   5.3064   5.3064   9.2863  11.8210  11.8210  17.6221
    18.4516  18.4516

          k = 0.0000 0.1667 0.0000 (  1615 PWs)   bands (ev):

    -4.6786   5.4452   5.9370   5.9370   9.9364  10.4964  10.9572  10.9572
    15.6083  16.0932

          k =-0.0833 0.2500-0.0833 (  1599 PWs)   bands (ev):

    -4.4941   4.4631   5.7199   5.7951  10.2368  10.6156  11.3646  11.7188
    15.3397  16.1681

          k =-0.1667 0.3333-0.1667 (  1610 PWs)   bands (ev):

    -4.1627   3.2135   5.4949   5.5872  10.0969  11.0452  11.7889  12.9647
    15.3809  16.3228

          k =-0.2500 0.4167-0.2500 (  1606 PWs)   bands (ev):

    -3.7129   2.0060   5.3187   5.3451   9.9075  11.4511  12.0516  14.1263
    16.0918  16.8338

          k =-0.3333 0.5000-0.3333 (  1616 PWs)   bands (ev):

    -3.2186   0.9971   5.1342   5.2211   9.7574  11.6861  12.1159  15.2515
    17.3578  17.7769

          k = 0.5833-0.4167 0.5833 (  1615 PWs)   bands (ev):

    -2.8726   0.4123   4.9943   5.2138   9.6821  11.8001  12.0704  16.5361
    17.9016  18.4228

          k = 0.5000-0.3333 0.5000 (  1616 PWs)   bands (ev):

    -2.9534   0.5419   4.9459   5.2959   9.6951  11.8729  11.9822  16.6299
    17.1471  17.9621

          k = 0.4167-0.2500 0.4167 (  1611 PWs)   bands (ev):

    -3.3819   1.3035   4.9982   5.4556   9.7925  11.8350  11.8900  15.2489
    16.0673  17.8789

          k = 0.3333-0.1667 0.3333 (  1605 PWs)   bands (ev):

    -3.8747   2.3937   5.1517   5.6678   9.9508  11.5592  11.7369  13.9009
    15.4514  16.8021

          k = 0.2500-0.0833 0.2500 (  1600 PWs)   bands (ev):

    -4.2895   3.6170   5.3988   5.8871  10.1040  11.1700  11.3171  12.6284
    15.3313  16.2055

          k = 0.1667-0.0000 0.1667 (  1592 PWs)   bands (ev):

    -4.5734   4.7695   5.7320   6.0438  10.0251  10.8402  10.8699  11.5316
    15.5497  16.0104

          k = 0.0000 0.3333 0.0000 (  1607 PWs)   bands (ev):

    -4.3603   4.1277   5.4793   5.4793  10.2315  11.0436  11.8497  11.8497
    15.0227  16.4803

          k =-0.0833 0.4167-0.0833 (  1616 PWs)   bands (ev):

    -4.0756   3.2170   5.2383   5.2418  10.2565  11.2067  12.3739  12.6213
    15.1400  16.7529

          k =-0.1667 0.5000-0.1667 (  1611 PWs)   bands (ev):

    -3.6598   2.1470   4.9457   5.0634  10.3686  11.4350  12.7323  13.1288
    16.0946  17.2547

          k =-0.2500 0.5833-0.2500 (  1610 PWs)   bands (ev):

    -3.1642   1.1486   4.6450   4.9735  10.3408  11.8281  12.8364  13.6668
    17.5448  18.1543

          k = 0.6667-0.3333 0.6667 (  1607 PWs)   bands (ev):

    -2.7308   0.4324   4.4067   4.9829  10.2998  12.0421  12.7670  14.7058
    17.8706  18.3854

          k = 0.5833-0.2500 0.5833 (  1602 PWs)   bands (ev):

    -2.6569   0.3216   4.2751   5.0886  10.3168  12.1492  12.6162  16.0893
    16.4820  16.9785

          k = 0.5000-0.1667 0.5000 (  1610 PWs)   bands (ev):

    -3.0177   0.8893   4.2794   5.2752  10.3969  12.2117  12.3843  15.0262
    15.8518  17.7088

          k = 0.4167-0.0833 0.4167 (  1613 PWs)   bands (ev):

    -3.5157   1.8028   4.4482   5.5107  10.5018  12.0071  12.0885  13.9006
    15.2145  18.2552

          k = 0.3333 0.0000 0.3333 (  1604 PWs)   bands (ev):

    -3.9626   2.7834   4.8216   5.7406  10.4920  11.5315  11.6233  13.2346
    15.0936  16.9982

          k = 0.0000 0.5000 0.0000 (  1612 PWs)   bands (ev):

    -3.8366   2.7170   4.9899   4.9899   9.9523  11.4693  13.0566  13.0566
    15.2340  17.1237

          k =-0.0833 0.5833-0.0833 (  1617 PWs)   bands (ev):

    -3.4589   1.9122   4.7123   4.7988  10.0296  11.4179  13.4612  13.6042
    16.1310  17.6199

          k =-0.1667 0.6667-0.1667 (  1620 PWs)   bands (ev):

    -2.9769   1.0478   4.3463   4.7004  10.2534  11.7625  13.4726  13.8387
    17.6260  18.4857

          k = 0.7500-0.2500 0.7500 (  1617 PWs)   bands (ev):

    -2.4886   0.3142   3.9995   4.7071  10.3575  12.6309  13.5025  13.7999
    17.8958  18.3915

          k = 0.6667-0.1667 0.6667 (  1607 PWs)   bands (ev):

    -2.2703   0.0222   3.7711   4.8170  10.4461  13.1260  13.6026  14.3416
    16.3409  16.9344

          k = 0.5833-0.0833 0.5833 (  1611 PWs)   bands (ev):

    -2.5531   0.3969   3.7302   5.0142  10.5697  13.1667  13.2448  14.8445
    15.8269  15.9051

          k = 0.5000 0.0000 0.5000 (  1604 PWs)   bands (ev):

    -3.0480   1.0980   3.9410   5.2650  10.6632  12.6610  12.8346  13.9505
    15.2744  17.6239

          k = 0.0000 0.6667 0.0000 (  1624 PWs)   bands (ev):

    -3.1180   1.3366   4.5903   4.5903   9.7778  11.0392  14.4448  14.4448
    16.5152  18.0204

          k =-0.0833 0.7500-0.0833 (  1618 PWs)   bands (ev):

    -2.6583   0.6286   4.3318   4.4738   9.9309  10.9234  14.7975  14.9613
    17.7144  18.7525

          k = 0.8333-0.1667 0.8333 (  1619 PWs)   bands (ev):

    -2.1422  -0.0467   3.9547   4.4650  10.1603  11.4456  14.7836  15.0450
    17.9660  18.4356

          k = 0.7500-0.0833 0.7500 (  1620 PWs)   bands (ev):

    -1.8112  -0.4269   3.6330   4.5643  10.2900  12.6089  14.7259  14.7996
    16.3217  17.0384

          k = 0.6667 0.0000 0.6667 (  1612 PWs)   bands (ev):

    -2.0595  -0.1468   3.5214   4.7581  10.4444  14.0430  14.1753  14.6150
    14.8813  16.1351

          k = 0.0000 0.8333 0.0000 (  1628 PWs)   bands (ev):

    -2.2196   0.0334   4.3351   4.3351   9.7833  10.4502  15.9225  15.9225
    18.2050  19.1658

          k = 0.9167-0.0833 0.9167 (  1622 PWs)   bands (ev):

    -1.6944  -0.5831   4.1351   4.3039   9.9989  10.4506  16.2802  16.3114
    18.1220  18.4493

          k = 0.8333 0.0000 0.8333 (  1614 PWs)   bands (ev):

    -1.3718  -0.9062   3.8209   4.3839  10.1358  11.2811  15.9079  16.1725
    16.5722  17.4367

          k = 0.0000-1.0000 0.0000 (  1604 PWs)   bands (ev):

    -1.1611  -1.1611   4.2478   4.2478  10.0073  10.0073  17.0083  17.0083
    18.3854  18.3854

          k =-0.1667 0.3333 0.0000 (  1603 PWs)   bands (ev):

    -4.2601   3.6598   5.2741   5.6972  10.6091  10.6356  11.7714  12.4633
    15.1558  16.4350

          k =-0.2500 0.4167-0.0833 (  1607 PWs)   bands (ev):

    -3.8861   2.6002   4.9066   5.5167  10.5267  11.1245  12.2399  13.1978
    15.3865  17.0256

          k =-0.3333 0.5000-0.1667 (  1604 PWs)   bands (ev):

    -3.4093   1.5357   4.6688   5.3033  10.3813  11.5736  12.4922  13.9440
    16.1448  18.1241

          k = 0.5833-0.4167 0.7500 (  1612 PWs)   bands (ev):

    -2.9301   0.6749   4.5392   5.1392  10.2709  11.7779  12.5618  14.9932
    17.2844  17.8745

          k = 0.5000-0.3333 0.6667 (  1602 PWs)   bands (ev):

    -2.6973   0.3109   4.4990   5.0779  10.2309  11.8203  12.5709  16.2505
    16.4451  18.3349

          k =-0.1667 0.5000 0.0000 (  1617 PWs)   bands (ev):

    -3.7457   2.4408   4.7912   5.1390  10.3470  11.3842  12.8795  13.0080
    15.5966  17.2761

          k =-0.2500 0.5833-0.0833 (  1611 PWs)   bands (ev):

    -3.2957   1.5368   4.4365   4.9606  10.6063  11.6243  12.9383  13.5163
    16.4548  18.3161

          k = 0.6667-0.3333 0.8333 (  1617 PWs)   bands (ev):

    -2.7935   0.6931   4.1706   4.8238  10.6847  12.0465  13.2396  13.7674
    17.5743  17.9257

          k = 0.5833-0.2500 0.7500 (  1607 PWs)   bands (ev):

    -2.4344   0.1712   3.9945   4.8048  10.7156  12.1477  13.5507  14.5499
    16.2722  18.3773

          k = 0.5000-0.1667 0.6667 (  1605 PWs)   bands (ev):

    -2.5337   0.3090   3.9379   4.9098  10.7879  12.1031  13.4755  14.8465
    16.0283  17.1471

          k = 0.4167-0.0833 0.5833 (  1610 PWs)   bands (ev):

    -2.9835   0.9822   4.0435   5.1071  10.8948  11.8874  13.2603  13.8014
    16.0547  17.6920

          k = 0.3333 0.0000 0.5000 (  1606 PWs)   bands (ev):

    -3.4777   1.8217   4.3599   5.3388  10.9433  11.3621  12.8874  13.2573
    15.5125  18.3198

          k =-0.1667 0.6667-0.0000 (  1626 PWs)   bands (ev):

    -3.0423   1.1983   4.4089   4.6399  10.1796  11.3128  13.6206  14.4253
    16.9122  18.4533

          k = 0.7500-0.2500 0.9167 (  1621 PWs)   bands (ev):

    -2.5389   0.4581   4.0767   4.5104  10.5075  11.6566  13.5144  14.8875
    17.8226  18.0870

          k = 0.6667-0.1667 0.8333 (  1616 PWs)   bands (ev):

    -2.0869  -0.1195   3.7712   4.5092  10.6584  12.6665  13.3880  14.9188
    16.3426  18.3579

          k = 0.5833-0.0833 0.7500 (  1614 PWs)   bands (ev):

    -2.0585  -0.1528   3.6074   4.6348  10.7901  13.1121  14.1615  14.5062
    15.1376  17.1055

          k = 0.5000 0.0000 0.6667 (  1621 PWs)   bands (ev):

    -2.4831   0.3593   3.6780   4.8532  10.9309  12.6575  13.7468  14.3257
    15.9263  16.2556

          k = 0.8333-0.1667 1.0000 (  1617 PWs)   bands (ev):

    -2.1682  -0.0129   4.1846   4.2981  10.1806  10.8002  14.9042  15.9064
    18.2102  18.3576

          k = 0.7500-0.0833 0.9167 (  1620 PWs)   bands (ev):

    -1.6560  -0.5895   3.8801   4.2747  10.4825  11.3618  14.7684  15.9611
    16.8345  18.2480

          k = 0.6667 0.0000 0.8333 (  1620 PWs)   bands (ev):

    -1.5952  -0.6413   3.6183   4.4054  10.6267  12.6147  14.3940  14.8603
    16.1584  17.3462

          k =-0.1667-1.0000 0.0000 (  1622 PWs)   bands (ev):

    -1.1479  -1.1479   4.1445   4.1445  10.3882  10.3882  16.2647  16.2647
    17.8637  17.8637

          k = 0.6667-0.3333 1.0000 (  1610 PWs)   bands (ev):

    -2.8230   0.8365   4.0233   4.7604  11.2245  11.6709  12.8141  14.3766
    16.7290  17.8013

          k = 0.5833-0.2500 0.9167 (  1611 PWs)   bands (ev):

    -2.3233   0.1692   3.7893   4.5672  11.4599  12.0217  13.1498  14.8480
    16.0977  17.5314

          k = 0.5000-0.1667 0.8333 (  1610 PWs)   bands (ev):

    -2.0575  -0.1587   3.7168   4.4897  11.4653  12.1038  14.2397  14.3850
    15.2193  18.4337

          k = 0.6667-0.1667 1.0000 (  1618 PWs)   bands (ev):

    -2.0253  -0.1533   3.8770   4.2592  11.2282  11.7297  13.3259  15.6963
    16.4879  18.0787

          k = 0.5833-0.0833 0.9167 (  1615 PWs)   bands (ev):

    -1.6152  -0.5986   3.7137   4.1717  11.5463  12.6867  13.1565  14.4253
    16.5217  18.2715

          k = 0.5000 0.0000 0.8333 (  1612 PWs)   bands (ev):

    -1.8214  -0.3757   3.6432   4.3089  11.6942  12.6846  13.2742  14.2505
    16.1080  17.6930

          k =-0.3333-1.0000 0.0000 (  1618 PWs)   bands (ev):

    -1.1209  -1.1209   3.9532   3.9532  11.4082  11.4082  14.5821  14.5821
    17.7105  17.7105

          k =-0.5000-1.0000 0.0000 (  1628 PWs)   bands (ev):

    -1.1071  -1.1071   3.8638   3.8638  12.6933  12.6933  13.0491  13.0491
    17.6880  17.6880

     the Fermi energy is    -1.1345 ev

     Writing output data file Si.save

     init_run     :      0.17s CPU      0.17s WALL (       1 calls)
     electrons    :     30.75s CPU     32.35s WALL (       1 calls)

     Called by init_run:
     wfcinit      :      0.00s CPU      0.00s WALL (       1 calls)
     potinit      :      0.06s CPU      0.06s WALL (       1 calls)

     Called by electrons:
     c_bands      :     30.68s CPU     32.28s WALL (       1 calls)
     v_of_rho     :      0.06s CPU      0.06s WALL (       1 calls)

     Called by c_bands:
     init_us_2    :      0.10s CPU      0.10s WALL (      72 calls)
     cegterg      :     23.91s CPU     25.18s WALL (      72 calls)

     Called by *egterg:
     h_psi        :     25.76s CPU     27.12s WALL (    1236 calls)
     g_psi        :      0.06s CPU      0.06s WALL (    1092 calls)
     cdiaghg      :      0.47s CPU      0.51s WALL (    1164 calls)

     Called by h_psi:
     add_vuspsi   :      0.73s CPU      0.78s WALL (    1236 calls)

     General routines
     calbec       :      0.79s CPU      0.86s WALL (    1236 calls)
     fft          :      0.03s CPU      0.03s WALL (      10 calls)
     fftw         :     22.98s CPU     24.14s WALL (   21506 calls)
     davcio       :      0.01s CPU      0.03s WALL (      72 calls)

     Parallel routines
     fft_scatter  :      0.56s CPU      0.57s WALL (   21516 calls)

     PWSCF        :    32.71s CPU        34.34s WALL


   This run was terminated on:  20:40:28  13Feb2023            

=------------------------------------------------------------------------------=
   JOB DONE.
=------------------------------------------------------------------------------=
