
     Program PWSCF v.5.1 starts on 13Feb2023 at 20:39:31 

     This program is part of the open-source Quantum ESPRESSO suite
     for quantum simulation of materials; please cite
         "P. Giannozzi et al., J. Phys.:Condens. Matter 21 395502 (2009);
          URL http://www.quantum-espresso.org", 
     in publications or presentations arising from this work. More details at
     http://www.quantum-espresso.org/quote

     Parallel version (MPI), running on     1 processors
     Waiting for input...
     Reading input from standard input

     Current dimensions of program PWSCF are:
     Max number of different atomic species (ntypx) = 10
     Max number of k-points (npk) =  40000
     Max angular momentum in pseudopotentials (lmaxx) =  3
               file Si.pbe-mt_fhi.UPF: wavefunction(s)  4f renormalized

     Subspace diagonalization in iterative solution of the eigenvalue problem:
     a serial algorithm will be used


     G-vector sticks info
     --------------------
     sticks:   dense  smooth     PW     G-vecs:    dense   smooth      PW
     Sum         733     733    211                12939    12939    2109



     bravais-lattice index     =            2
     lattice parameter (alat)  =      10.2623  a.u.
     unit-cell volume          =     270.1967 (a.u.)^3
     number of atoms/cell      =            2
     number of atomic types    =            1
     number of electrons       =         2.00
     number of Kohn-Sham states=           10
     kinetic-energy cutoff     =      50.0000  Ry
     charge density cutoff     =     200.0000  Ry
     convergence threshold     =      1.6E-09
     mixing beta               =       0.3000
     number of iterations used =            8  plain     mixing
     Exchange-correlation      = PBE ( 1  4  3  4 0)

     celldm(1)=  10.262347  celldm(2)=   0.000000  celldm(3)=   0.000000
     celldm(4)=   0.000000  celldm(5)=   0.000000  celldm(6)=   0.000000

     crystal axes: (cart. coord. in units of alat)
               a(1) = (  -0.500000   0.000000   0.500000 )  
               a(2) = (   0.000000   0.500000   0.500000 )  
               a(3) = (  -0.500000   0.500000   0.000000 )  

     reciprocal axes: (cart. coord. in units 2 pi/alat)
               b(1) = ( -1.000000 -1.000000  1.000000 )  
               b(2) = (  1.000000  1.000000  1.000000 )  
               b(3) = ( -1.000000  1.000000 -1.000000 )  


     PseudoPot. # 1 for Si read from file:
     /home/acedemo/psudo/Si.pbe-mt_fhi.UPF
     MD5 check sum: 259057c2adf9952f9ced37ae3d9e311d
     Pseudo is Norm-conserving, Zval =  4.0
     Generated using FHI98PP, converted with fhi2upf.x v.5.0.2
     Using radial grid of  495 points,  3 beta functions with: 
                l(1) =   0
                l(2) =   1
                l(3) =   3

     atomic species   valence    mass     pseudopotential
        Si             4.00    28.08550     Si( 1.00)

     48 Sym. Ops., with inversion, found (24 have fractional translation)



   Cartesian axes

     site n.     atom                  positions (alat units)
         1           Si  tau(   1) = (   0.0000000   0.0000000   0.0000000  )
         2           Si  tau(   2) = (   0.2500000   0.2500000   0.2500000  )

     number of k points=    10  Marzari-Vanderbilt smearing, width (Ry)=  0.0500
                       cart. coord. in units 2pi/alat
        k(    1) = (   0.0000000   0.0000000   0.0000000), wk =   0.0160000
        k(    2) = (  -0.2000000   0.2000000  -0.2000000), wk =   0.1280000
        k(    3) = (  -0.4000000   0.4000000  -0.4000000), wk =   0.1280000
        k(    4) = (   0.0000000   0.4000000   0.0000000), wk =   0.0960000
        k(    5) = (  -0.2000000   0.6000000  -0.2000000), wk =   0.3840000
        k(    6) = (   0.6000000  -0.2000000   0.6000000), wk =   0.3840000
        k(    7) = (   0.4000000   0.0000000   0.4000000), wk =   0.1920000
        k(    8) = (   0.0000000   0.8000000   0.0000000), wk =   0.0960000
        k(    9) = (   0.8000000   0.0000000   0.8000000), wk =   0.1920000
        k(   10) = (   0.6000000  -0.2000000   1.0000000), wk =   0.3840000

     Dense  grid:    12939 G-vectors     FFT dimensions: (  36,  36,  36)

     Largest allocated arrays     est. size (Mb)     dimensions
        Kohn-Sham Wavefunctions         0.25 Mb     (    1639,   10)
        NL pseudopotentials             0.55 Mb     (    1639,   22)
        Each V/rho on FFT grid          0.71 Mb     (   46656)
        Each G-vector array             0.10 Mb     (   12939)
        G-vector shells                 0.00 Mb     (     180)
     Largest temporary arrays     est. size (Mb)     dimensions
        Auxiliary wavefunctions         1.00 Mb     (    1639,   40)
        Each subspace H/S matrix        0.02 Mb     (      40,   40)
        Each <psi_i|beta_j> matrix      0.00 Mb     (      22,   10)
        Arrays for rho mixing           5.70 Mb     (   46656,    8)

     Initial potential from superposition of free atoms

     starting charge    7.99859, renormalised to    2.00000
     Starting wfc are   32 randomized atomic wfcs

     total cpu time spent up to now is        1.3 secs

     per-process dynamical memory:    15.9 Mb

     Self-consistent Calculation

     iteration #  1     ecut=    50.00 Ry     beta=0.30
     Davidson diagonalization with overlap
     ethr =  1.00E-02,  avg # of iterations =  2.1

     Threshold (ethr) on eigenvalues was too large:
     Diagonalizing with lowered threshold

     Davidson diagonalization with overlap
     ethr =  7.60E-04,  avg # of iterations =  1.0

     total cpu time spent up to now is        3.2 secs

     total energy              =     -17.08074946 Ry
     Harris-Foulkes estimate   =     -17.07640494 Ry
     estimated scf accuracy    <       0.01499001 Ry

     iteration #  2     ecut=    50.00 Ry     beta=0.30
     Davidson diagonalization with overlap
     ethr =  7.50E-04,  avg # of iterations =  1.0

     total cpu time spent up to now is        4.4 secs

     total energy              =     -17.08586059 Ry
     Harris-Foulkes estimate   =     -17.08082340 Ry
     estimated scf accuracy    <       0.00760673 Ry

     iteration #  3     ecut=    50.00 Ry     beta=0.30
     Davidson diagonalization with overlap
     ethr =  3.80E-04,  avg # of iterations =  1.0

     total cpu time spent up to now is        5.4 secs

     total energy              =     -17.08611038 Ry
     Harris-Foulkes estimate   =     -17.08610841 Ry
     estimated scf accuracy    <       0.00000135 Ry

     iteration #  4     ecut=    50.00 Ry     beta=0.30
     Davidson diagonalization with overlap
     ethr =  6.73E-08,  avg # of iterations =  3.3

     total cpu time spent up to now is        6.8 secs

     total energy              =     -17.08612333 Ry
     Harris-Foulkes estimate   =     -17.08612226 Ry
     estimated scf accuracy    <       0.00000085 Ry

     iteration #  5     ecut=    50.00 Ry     beta=0.30
     Davidson diagonalization with overlap
     ethr =  4.24E-08,  avg # of iterations =  1.0

     total cpu time spent up to now is        7.7 secs

     total energy              =     -17.08612526 Ry
     Harris-Foulkes estimate   =     -17.08612334 Ry
     estimated scf accuracy    <       0.00000055 Ry

     iteration #  6     ecut=    50.00 Ry     beta=0.30
     Davidson diagonalization with overlap
     ethr =  2.77E-08,  avg # of iterations =  2.0

     total cpu time spent up to now is        8.4 secs

     total energy              =     -17.08612564 Ry
     Harris-Foulkes estimate   =     -17.08612550 Ry
     estimated scf accuracy    <       0.00000002 Ry

     iteration #  7     ecut=    50.00 Ry     beta=0.30
     Davidson diagonalization with overlap
     ethr =  1.15E-09,  avg # of iterations =  2.0

     total cpu time spent up to now is        9.3 secs

     total energy              =     -17.08612567 Ry
     Harris-Foulkes estimate   =     -17.08612565 Ry
     estimated scf accuracy    <          3.4E-09 Ry

     iteration #  8     ecut=    50.00 Ry     beta=0.30
     Davidson diagonalization with overlap
     ethr =  1.69E-10,  avg # of iterations =  3.0

     total cpu time spent up to now is       10.2 secs

     End of self-consistent calculation

          k = 0.0000 0.0000 0.0000 (  1639 PWs)   bands (ev):

    -4.7854   6.1405   6.1405   6.1405   9.2592  10.6079  10.6079  10.6079
    15.9640  15.9640

          k =-0.2000 0.2000-0.2000 (  1606 PWs)   bands (ev):

    -4.3352   3.6617   5.7929   5.7929   9.7516  11.2628  11.2628  12.5906
    15.7451  15.7451

          k =-0.4000 0.4000-0.4000 (  1616 PWs)   bands (ev):

    -3.2301   0.9153   5.3681   5.3681   9.3524  11.7972  11.7972  16.4583
    17.1925  17.1925

          k = 0.0000 0.4000 0.0000 (  1607 PWs)   bands (ev):

    -4.1750   3.5644   5.2784   5.2784  10.1139  11.3446  12.3041  12.3041
    14.9561  16.7070

          k =-0.2000 0.6000-0.2000 (  1619 PWs)   bands (ev):

    -3.2069   1.3291   4.5525   4.8728  10.3647  11.8890  13.2015  13.2035
    17.2806  18.0887

          k = 0.6000-0.2000 0.6000 (  1596 PWs)   bands (ev):

    -2.5477   0.2674   4.0208   5.0151  10.4496  12.4753  12.9309  15.6697
    16.1120  16.6864

          k = 0.4000 0.0000 0.4000 (  1610 PWs)   bands (ev):

    -3.6243   2.0613   4.4394   5.5651  10.6078  11.9327  12.0541  13.5741
    15.0779  18.0073

          k = 0.0000 0.8000 0.0000 (  1624 PWs)   bands (ev):

    -2.4128   0.2863   4.3731   4.3731   9.7655  10.5609  15.6265  15.6265
    17.8546  18.9172

          k = 0.8000 0.0000 0.8000 (  1622 PWs)   bands (ev):

    -1.4704  -0.7943   3.7111   4.4419  10.1886  11.7668  15.5631  15.9090
    16.1374  17.1612

          k = 0.6000-0.2000 1.0000 (  1616 PWs)   bands (ev):

    -2.1073  -0.0566   3.7670   4.3653  11.7591  12.0425  12.7792  15.3683
    16.0404  17.6809

     the Fermi energy is    -1.2644 ev

!    total energy              =     -17.08612568 Ry
     Harris-Foulkes estimate   =     -17.08612568 Ry
     estimated scf accuracy    <          5.3E-10 Ry

     The total energy is the sum of the following terms:

     one-electron contribution =       0.44549771 Ry
     hartree contribution      =       0.12107674 Ry
     xc contribution           =      -0.85974661 Ry
     ewald contribution        =     -16.79708774 Ry
     smearing contrib. (-TS)   =       0.00413422 Ry

     convergence has been achieved in   8 iterations

     Forces acting on atoms (Ry/au):

     atom    1 type  1   force =    -0.00000000    0.00000000    0.00000000
     atom    2 type  1   force =    -0.00000000   -0.00000000    0.00000000

     Total force =     0.000000     Total SCF correction =     0.000000


     entering subroutine stress ...

          total   stress  (Ry/bohr**3)                   (kbar)     P=-2249.87
  -0.01529432   0.00000000   0.00000000      -2249.87      0.00      0.00
   0.00000000  -0.01529432  -0.00000000          0.00  -2249.87     -0.00
   0.00000000  -0.00000000  -0.01529432          0.00     -0.00  -2249.87


     Writing output data file Si.save

     init_run     :      1.19s CPU      1.25s WALL (       1 calls)
     electrons    :      8.21s CPU      8.87s WALL (       1 calls)
     forces       :      0.09s CPU      0.09s WALL (       1 calls)
     stress       :      0.79s CPU      0.82s WALL (       1 calls)

     Called by init_run:
     wfcinit      :      1.02s CPU      1.06s WALL (       1 calls)
     potinit      :      0.05s CPU      0.05s WALL (       1 calls)

     Called by electrons:
     c_bands      :      6.36s CPU      6.84s WALL (       9 calls)
     sum_band     :      1.43s CPU      1.57s WALL (       9 calls)
     v_of_rho     :      0.42s CPU      0.47s WALL (       9 calls)
     mix_rho      :      0.02s CPU      0.02s WALL (       9 calls)

     Called by c_bands:
     init_us_2    :      0.33s CPU      0.35s WALL (     210 calls)
     cegterg      :      6.11s CPU      6.57s WALL (      90 calls)

     Called by *egterg:
     h_psi        :      6.42s CPU      6.87s WALL (     264 calls)
     g_psi        :      0.01s CPU      0.01s WALL (     164 calls)
     cdiaghg      :      0.07s CPU      0.08s WALL (     244 calls)

     Called by h_psi:
     add_vuspsi   :      0.18s CPU      0.20s WALL (     264 calls)

     General routines
     calbec       :      0.22s CPU      0.23s WALL (     284 calls)
     fft          :      0.17s CPU      0.20s WALL (     108 calls)
     fftw         :      6.76s CPU      7.25s WALL (    5590 calls)
     davcio       :      0.00s CPU      0.00s WALL (      10 calls)

     Parallel routines
     fft_scatter  :      0.18s CPU      0.19s WALL (    5698 calls)

     PWSCF        :    10.38s CPU        11.15s WALL


   This run was terminated on:  20:39:42  13Feb2023            

=------------------------------------------------------------------------------=
   JOB DONE.
=------------------------------------------------------------------------------=
