
     Program PWSCF v.5.1 starts on 13Feb2023 at 22:13:15 

     This program is part of the open-source Quantum ESPRESSO suite
     for quantum simulation of materials; please cite
         "P. Giannozzi et al., J. Phys.:Condens. Matter 21 395502 (2009);
          URL http://www.quantum-espresso.org", 
     in publications or presentations arising from this work. More details at
     http://www.quantum-espresso.org/quote

     Parallel version (MPI), running on     1 processors
     Waiting for input...
     Reading input from standard input

     Current dimensions of program PWSCF are:
     Max number of different atomic species (ntypx) = 10
     Max number of k-points (npk) =  40000
     Max angular momentum in pseudopotentials (lmaxx) =  3

     Atomic positions and unit cell read from directory:
     ./out/Si.save/

               file Si.pbe-mt_fhi.UPF: wavefunction(s)  4f renormalized

     Subspace diagonalization in iterative solution of the eigenvalue problem:
     a serial algorithm will be used


     G-vector sticks info
     --------------------
     sticks:   dense  smooth     PW     G-vecs:    dense   smooth      PW
     Sum         733     733    211                12939    12939    2109



     bravais-lattice index     =            2
     lattice parameter (alat)  =      10.2623  a.u.
     unit-cell volume          =     270.1967 (a.u.)^3
     number of atoms/cell      =            2
     number of atomic types    =            1
     number of electrons       =        38.00
     number of Kohn-Sham states=           20
     kinetic-energy cutoff     =      50.0000  Ry
     charge density cutoff     =     200.0000  Ry
     Exchange-correlation      = PBE ( 1  4  3  4 0)

     celldm(1)=  10.262347  celldm(2)=   0.000000  celldm(3)=   0.000000
     celldm(4)=   0.000000  celldm(5)=   0.000000  celldm(6)=   0.000000

     crystal axes: (cart. coord. in units of alat)
               a(1) = (  -0.500000   0.000000   0.500000 )  
               a(2) = (   0.000000   0.500000   0.500000 )  
               a(3) = (  -0.500000   0.500000   0.000000 )  

     reciprocal axes: (cart. coord. in units 2 pi/alat)
               b(1) = ( -1.000000 -1.000000  1.000000 )  
               b(2) = (  1.000000  1.000000  1.000000 )  
               b(3) = ( -1.000000  1.000000 -1.000000 )  


     PseudoPot. # 1 for Si read from file:
     /home/acedemo/psudo/Si.pbe-mt_fhi.UPF
     MD5 check sum: 259057c2adf9952f9ced37ae3d9e311d
     Pseudo is Norm-conserving, Zval =  4.0
     Generated using FHI98PP, converted with fhi2upf.x v.5.0.2
     Using radial grid of  495 points,  3 beta functions with: 
                l(1) =   0
                l(2) =   1
                l(3) =   3

     atomic species   valence    mass     pseudopotential
        Si             4.00    28.08550     Si( 1.00)

     48 Sym. Ops., with inversion, found (24 have fractional translation)



   Cartesian axes

     site n.     atom                  positions (alat units)
         1           Si  tau(   1) = (   0.0000000   0.0000000   0.0000000  )
         2           Si  tau(   2) = (   0.2500000   0.2500000   0.2500000  )

     number of k points=    51  Marzari-Vanderbilt smearing, width (Ry)=  0.0500
                       cart. coord. in units 2pi/alat
        k(    1) = (   0.5000000   0.5000000   0.5000000), wk =   0.0000000
        k(    2) = (   0.4500000   0.4500000   0.4500000), wk =   0.0014779
        k(    3) = (   0.4000000   0.4000000   0.4000000), wk =   0.0029558
        k(    4) = (   0.3500000   0.3500000   0.3500000), wk =   0.0044337
        k(    5) = (   0.3000000   0.3000000   0.3000000), wk =   0.0059116
        k(    6) = (   0.2500000   0.2500000   0.2500000), wk =   0.0073895
        k(    7) = (   0.2000000   0.2000000   0.2000000), wk =   0.0088674
        k(    8) = (   0.1500000   0.1500000   0.1500000), wk =   0.0103453
        k(    9) = (   0.1000000   0.1000000   0.1000000), wk =   0.0118232
        k(   10) = (   0.0500000   0.0500000   0.0500000), wk =   0.0133011
        k(   11) = (   0.0000000   0.0000000   0.0000000), wk =   0.0147790
        k(   12) = (   0.0000000   0.1000000   0.0000000), wk =   0.0168691
        k(   13) = (   0.0000000   0.2000000   0.0000000), wk =   0.0189591
        k(   14) = (   0.0000000   0.3000000   0.0000000), wk =   0.0210492
        k(   15) = (   0.0000000   0.4000000   0.0000000), wk =   0.0231392
        k(   16) = (   0.0000000   0.5000000   0.0000000), wk =   0.0252293
        k(   17) = (   0.0000000   0.6000000   0.0000000), wk =   0.0273194
        k(   18) = (   0.0000000   0.7000000   0.0000000), wk =   0.0294094
        k(   19) = (   0.0000000   0.8000000   0.0000000), wk =   0.0314995
        k(   20) = (   0.0000000   0.9000000   0.0000000), wk =   0.0335896
        k(   21) = (   0.0000000   1.0000000   0.0000000), wk =   0.0356796
        k(   22) = (   0.0000000   0.9750000   0.0750000), wk =   0.0370621
        k(   23) = (   0.0000000   0.9500000   0.1500000), wk =   0.0384445
        k(   24) = (  -0.0000000   0.9250000   0.2250000), wk =   0.0398270
        k(   25) = (  -0.0000000   0.9000000   0.3000000), wk =   0.0412094
        k(   26) = (   0.0000000   0.8750000   0.3750000), wk =   0.0425919
        k(   27) = (   0.0000000   0.8500000   0.4500000), wk =   0.0439743
        k(   28) = (   0.0000000   0.8250000   0.5250000), wk =   0.0453568
        k(   29) = (  -0.0000000   0.8000000   0.6000000), wk =   0.0467392
        k(   30) = (  -0.0000000   0.7750000   0.6750000), wk =   0.0481217
        k(   31) = (   0.0000000   0.7500000   0.7500000), wk =   0.0495041
        k(   32) = (   0.0000000   0.7250000   0.7750000), wk =   0.0500266
        k(   33) = (   0.0000000   0.7000000   0.8000000), wk =   0.0505491
        k(   34) = (   0.0000000   0.6750000   0.8250000), wk =   0.0510717
        k(   35) = (   0.0000000   0.6500000   0.8500000), wk =   0.0515942
        k(   36) = (   0.0000000   0.6250000   0.8750000), wk =   0.0521167
        k(   37) = (   0.0000000   0.6000000   0.9000000), wk =   0.0526392
        k(   38) = (   0.0000000   0.5750000   0.9250000), wk =   0.0531617
        k(   39) = (   0.0000000   0.5500000   0.9500000), wk =   0.0536842
        k(   40) = (   0.0000000   0.5250000   0.9750000), wk =   0.0542067
        k(   41) = (   0.0000000   0.5000000   1.0000000), wk =   0.0547293
        k(   42) = (   0.0000000   0.4500000   0.9000000), wk =   0.0574942
        k(   43) = (  -0.0000000   0.4000000   0.8000000), wk =   0.0602591
        k(   44) = (  -0.0000000   0.3500000   0.7000000), wk =   0.0630239
        k(   45) = (  -0.0000000   0.3000000   0.6000000), wk =   0.0657888
        k(   46) = (   0.0000000   0.2500000   0.5000000), wk =   0.0685537
        k(   47) = (   0.0000000   0.2000000   0.4000000), wk =   0.0713186
        k(   48) = (   0.0000000   0.1500000   0.3000000), wk =   0.0740835
        k(   49) = (  -0.0000000   0.1000000   0.2000000), wk =   0.0768484
        k(   50) = (  -0.0000000   0.0500000   0.1000000), wk =   0.0796133
        k(   51) = (   0.0000000   0.0000000   0.0000000), wk =   0.0823782

     Dense  grid:    12939 G-vectors     FFT dimensions: (  36,  36,  36)

     Largest allocated arrays     est. size (Mb)     dimensions
        Kohn-Sham Wavefunctions         0.50 Mb     (    1639,   20)
        NL pseudopotentials             0.55 Mb     (    1639,   22)
        Each V/rho on FFT grid          0.71 Mb     (   46656)
        Each G-vector array             0.10 Mb     (   12939)
        G-vector shells                 0.00 Mb     (     180)
     Largest temporary arrays     est. size (Mb)     dimensions
        Auxiliary wavefunctions         2.00 Mb     (    1639,   80)
        Each subspace H/S matrix        0.10 Mb     (      80,   80)
        Each <psi_i|beta_j> matrix      0.01 Mb     (      22,   20)

     The potential is recalculated from file :
     ./out/Si.save/charge-density.dat

     Starting wfc are   32 randomized atomic wfcs

     Band Structure Calculation
     Davidson diagonalization with overlap

     ethr =  4.21E-12,  avg # of iterations = 19.2

     total cpu time spent up to now is       43.9 secs

     End of band structure calculation

          k = 0.5000 0.5000 0.5000 (  1622 PWs)   bands (ev):

    -7.5441  -6.4431   1.1395   1.1395   3.0889   3.4247   3.4247   5.0497
    11.6417  11.6417  12.0503  12.2384  12.2384  14.7067  20.0252  21.0508
    21.3296  21.3296  22.7328  22.7328

          k = 0.4500 0.4500 0.4500 (  1610 PWs)   bands (ev):

    -7.8736  -6.0438   1.1494   1.1494   3.0922   3.4784   3.4784   5.1138
    10.7790  10.7790  11.7068  13.1739  13.1739  15.0473  18.9020  20.3000
    20.3000  21.8395  23.3484  23.7802

          k = 0.4000 0.4000 0.4000 (  1616 PWs)   bands (ev):

    -8.4147  -5.2933   1.1820   1.1820   3.1071   3.6347   3.6347   5.2996
     9.7539   9.7539  10.9798  14.4166  14.4166  15.5854  17.6202  18.8415
    18.8415  20.9619  24.2731  25.2074

          k = 0.3500 0.3500 0.3500 (  1610 PWs)   bands (ev):

    -8.9357  -4.4242   1.2440   1.2440   3.1452   3.8786   3.8786   5.5911
     8.8062   8.8062  10.1617  15.0036  15.7050  15.7050  17.4330  17.4330
    17.6081  19.5182  25.8600  26.1356

          k = 0.3000 0.3000 0.3000 (  1615 PWs)   bands (ev):

    -9.3999  -3.4752   1.3433   1.3433   3.2172   4.1818   4.1818   5.9667
     7.9666   7.9666   9.3524  13.5728  15.8748  15.8748  17.2651  17.2651
    17.9873  18.6666  26.2963  26.2963

          k = 0.2500 0.2500 0.2500 (  1618 PWs)   bands (ev):

    -9.7976  -2.4589   1.4864   1.4864   3.3296   4.4840   4.4840   6.3932
     7.2904   7.2904   8.5959  12.0529  14.6070  14.6070  16.7041  18.6596
    18.6596  19.7419  26.1882  26.1882

          k = 0.2000 0.2000 0.2000 (  1606 PWs)   bands (ev):

   -10.1254  -1.3843   1.6772   1.6772   3.4814   4.6477   4.6477   6.7823
     6.9109   6.9109   7.9521  10.6033  13.3636  13.3636  15.4570  20.1478
    20.1478  20.9260  26.0390  26.0390

          k = 0.1500 0.1500 0.1500 (  1600 PWs)   bands (ev):

   -10.3815  -0.2637   1.9155   1.9155   3.6585   4.5095   4.5095   6.8054
     6.9879   6.9879   7.5934   9.4273  12.1934  12.1934  14.3110  21.6602
    21.6602  22.1170  25.9191  25.9191

          k = 0.1000 0.1000 0.1000 (  1606 PWs)   bands (ev):

   -10.5649   0.8782   2.1935   2.1935   3.8130   4.1483   4.1483   6.3843
     7.0895   7.4412   7.4412   9.0904  11.1122  11.1122  13.2985  23.1193
    23.1193  23.2584  25.8858  25.8858

          k = 0.0500 0.0500 0.0500 (  1630 PWs)   bands (ev):

   -10.6751   1.9709   2.4774   2.4774   3.7645   3.7645   3.7997   5.9405
     6.3436   8.0669   8.0669   9.4044  10.1590  10.1590  12.5056  24.2348
    24.2819  24.2819  26.0813  26.0813

          k = 0.0000 0.0000 0.0000 (  1639 PWs)   bands (ev):

   -10.7119   2.6308   2.6308   2.6308   3.5716   3.5716   3.5716   5.7371
     6.0444   8.5062   8.5062   9.6167   9.6167   9.6167  12.1674  24.6956
    24.6956  24.6956  26.4710  26.4710

          k = 0.0000 0.1000 0.0000 (  1627 PWs)   bands (ev):

   -10.6629   2.1545   2.1545   2.3673   3.2925   4.1116   4.1116   5.9598
     6.4112   7.5635   8.5560   9.6940   9.6940  10.3123  12.6782  23.9789
    23.9789  24.7400  25.6736  25.8173

          k = 0.0000 0.2000 0.0000 (  1599 PWs)   bands (ev):

   -10.5159   1.4586   1.4586   1.7603   2.7186   4.9935   4.9935   5.5812
     7.2470   7.2473   8.7054   9.9306   9.9306  10.8566  14.1031  22.6283
    22.6283  24.1902  24.8050  24.8730

          k = 0.0000 0.3000 0.0000 (  1607 PWs)   bands (ev):

   -10.2712   0.8063   0.8063   1.0137   2.1056   4.2893   5.9391   5.9391
     8.1435   8.2929   8.9544  10.3410  10.3410  11.2285  15.9808  21.1730
    21.1730  22.6121  23.7146  25.0947

          k = 0.0000 0.4000 0.0000 (  1607 PWs)   bands (ev):

    -9.9293   0.1821   0.2281   0.2281   1.5382   3.0533   6.8947   6.8947
     9.2839   9.3027   9.4572  10.9464  10.9464  11.6207  18.0534  19.7350
    19.7350  21.0636  22.6110  25.4053

          k = 0.0000 0.5000 0.0000 (  1612 PWs)   bands (ev):

    -9.4911  -0.7459  -0.2671  -0.2671   1.0451   2.0305   7.8295   7.8295
     9.7504  10.5211  10.6970  11.7654  11.7654  12.1034  18.3539  18.3539
    19.5806  20.2332  21.5423  25.8018

          k = 0.0000 0.6000 0.0000 (  1620 PWs)   bands (ev):

    -8.9575  -1.7689  -0.6753  -0.6753   0.6386   1.2571   8.7320   8.7320
    10.2972  11.7353  11.9696  12.7758  12.7950  12.7950  17.0534  17.0534
    18.1774  20.5609  22.4589  25.7601

          k = 0.0000 0.7000 0.0000 (  1632 PWs)   bands (ev):

    -8.3301  -2.8431  -0.9945  -0.9945   0.3255   0.7055   9.6138   9.6138
    10.9429  12.6806  13.1971  13.8651  13.9625  13.9625  15.8947  15.8947
    16.8612  19.7529  24.0182  24.6024

          k = 0.0000 0.8000 0.0000 (  1624 PWs)   bands (ev):

    -7.6111  -3.9145  -1.2231  -1.2231   0.1105   0.3304  10.4995  10.4995
    11.6870  13.3911  14.2002  14.3244  14.3244  15.3102  15.6362  15.7893
    15.7893  19.3013  22.2071  22.8563

          k = 0.0000 0.9000 0.0000 (  1608 PWs)   bands (ev):

    -6.8036  -4.9451  -1.3606  -1.3606  -0.0024   0.0988  11.4124  11.4124
    12.5292  13.3782  13.3782  14.0177  14.5048  14.6697  16.9095  17.1820
    17.1820  19.4879  20.4391  20.9735

          k = 0.0000 1.0000 0.0000 (  1604 PWs)   bands (ev):

    -5.9124  -5.9124  -1.4065  -1.4065  -0.0085  -0.0085  12.2973  12.2973
    12.4495  12.4495  13.4687  13.4687  14.5158  14.5158  18.3404  18.3404
    18.5889  18.5889  19.6834  19.6834

          k = 0.0000 0.9750 0.0750 (  1618 PWs)   bands (ev):

    -6.1197  -5.6557  -1.6710  -1.6646   0.3047   0.3242  11.4216  11.8885
    12.1501  12.6351  13.5932  14.0510  14.7607  14.9934  17.5159  17.9584
    18.8142  18.8408  19.7731  20.1153

          k = 0.0000 0.9500 0.1500 (  1622 PWs)   bands (ev):

    -6.2747  -5.3569  -2.1649  -2.1332   0.9677   0.9968  10.0795  11.0068
    11.9300  12.9111  13.6321  14.3694  15.4529  16.0574  16.5842  17.4970
    18.6586  19.0883  20.0185  20.6177

          k =-0.0000 0.9250 0.2250 (  1622 PWs)   bands (ev):

    -6.3763  -5.0330  -2.6702  -2.5831   1.7601   1.7939   8.7097  10.0846
    11.7316  13.1357  13.6565  14.5050  15.3691  16.6350  16.6725  17.4962
    18.7141  19.2499  20.5366  21.0294

          k =-0.0000 0.9000 0.3000 (  1623 PWs)   bands (ev):

    -6.4252  -4.7300  -3.1352  -2.9206   2.6279   2.6581   7.3721   9.1867
    11.5252  13.0981  13.8857  14.4717  14.6788  16.6126  17.4313  17.8354
    19.3514  19.3933  21.2957  21.5549

          k = 0.0000 0.8750 0.3750 (  1614 PWs)   bands (ev):

    -6.4230  -4.5559  -3.5431  -3.0249   3.5379   3.5492   6.1210   8.3362
    11.2818  12.7171  14.2164  14.2940  14.3185  16.7147  17.9508  18.1825
    19.5958  20.2200  22.1550  22.2061

          k = 0.0000 0.8500 0.4500 (  1612 PWs)   bands (ev):

    -6.3736  -4.6031  -3.8846  -2.8007   4.0642   4.4984   5.3292   7.5582
    10.9737  12.0901  14.1071  14.1348  14.7566  16.9717  18.0736  18.8122
    19.8961  20.9239  21.7820  22.5215

          k = 0.0000 0.8250 0.5250 (  1611 PWs)   bands (ev):

    -6.2836  -4.7823  -4.1501  -2.3397   3.2848   5.3748   5.9537   6.9507
    10.5924  11.3896  14.0184  14.1961  15.2726  17.2576  18.2927  19.3174
    20.1599  20.7656  21.2566  22.3384

          k =-0.0000 0.8000 0.6000 (  1614 PWs)   bands (ev):

    -6.1641  -4.9849  -4.3273  -1.7625   2.2030   5.5964   7.0006   7.0891
    10.1571  10.7027  14.0632  14.3514  15.8271  17.4707  18.6253  19.2863
    19.7554  20.8501  20.9636  22.1456

          k =-0.0000 0.7750 0.6750 (  1621 PWs)   bands (ev):

    -6.0317  -5.1651  -4.3989  -1.1634   1.1969   5.1175   7.9980   8.1253
     9.7111  10.0720  14.2390  14.5708  16.4019  17.5526  18.1736  18.8901
    20.1357  20.2203  21.3875  21.5688

          k = 0.0000 0.7500 0.7500 (  1624 PWs)   bands (ev):

    -5.9051  -5.3071  -4.3463  -0.8525   0.5960   4.5578   8.8451   9.0636
     9.4827   9.7316  14.5333  14.8271  16.7705  17.3274  17.3774  18.5878
    20.1149  20.2011  20.9554  21.3188

          k = 0.0000 0.7250 0.7750 (  1616 PWs)   bands (ev):

    -5.8991  -5.3032  -4.3403  -0.9827   0.7386   4.5618   8.6557   8.8388
     9.6737   9.9653  14.5447  14.8262  16.5536  17.3149  17.5603  18.5765
    20.0612  20.0703  21.0781  21.4478

          k = 0.0000 0.7000 0.8000 (  1621 PWs)   bands (ev):

    -5.8810  -5.2919  -4.3225  -1.2815   1.0744   4.5738   8.3145   8.4500
    10.0197  10.3806  14.5787  14.8211  16.2030  17.1510  17.9605  18.5059
    19.7563  20.0378  21.3571  21.7013

          k = 0.0000 0.6750 0.8250 (  1620 PWs)   bands (ev):

    -5.8508  -5.2737  -4.2927  -1.6406   1.4957   4.5932   7.9494   8.0415
    10.3921  10.8319  14.6335  14.8029  15.8619  16.9292  18.3344  18.3901
    19.4058  20.1133  21.6919  21.9120

          k = 0.0000 0.6500 0.8500 (  1616 PWs)   bands (ev):

    -5.8086  -5.2502  -4.2511  -2.0144   1.9575   4.6188   7.5844   7.6363
    10.7654  11.2933  14.7051  14.7498  15.5734  16.6841  18.0813  18.7761
    19.1045  20.2861  22.0259  22.0366

          k = 0.0000 0.6250 0.8750 (  1616 PWs)   bands (ev):

    -5.7544  -5.2235  -4.1976  -2.3841   2.4418   4.6487   7.2283   7.2416
    11.1302  11.7521  14.6270  14.7842  15.3827  16.4413  17.7890  18.6161
    19.3636  20.5137  22.0803  22.3664

          k = 0.0000 0.6000 0.9000 (  1613 PWs)   bands (ev):

    -5.6881  -5.1976  -4.1323  -2.7386   2.9387   4.6795   6.8621   6.8873
    11.4801  12.1902  14.4357  14.8507  15.3043  16.2259  17.4917  18.2779
    19.8187  20.7647  22.1077  22.6660

          k = 0.0000 0.5750 0.9250 (  1615 PWs)   bands (ev):

    -5.6098  -5.1792  -4.0552  -3.0679   3.4389   4.7053   6.5048   6.5692
    11.8099  12.5689  14.2470  14.8695  15.3021  16.0629  17.2224  17.9469
    20.2846  21.0186  22.1212  22.9223

          k = 0.0000 0.5500 0.9500 (  1615 PWs)   bands (ev):

    -5.5196  -5.1793  -3.9664  -3.3589   3.9264   4.7154   6.1844   6.2855
    12.1153  12.8026  14.1698  14.8062  15.3483  15.9507  17.0312  17.6381
    20.7412  21.2576  22.1283  22.9243

          k = 0.0000 0.5250 0.9750 (  1615 PWs)   bands (ev):

    -5.4174  -5.2145  -3.8660  -3.5940   4.3578   4.6923   5.9430   6.0547
    12.3917  12.8051  14.2811  14.6645  15.4445  15.8230  16.9899  17.3608
    21.1574  21.4468  22.1453  22.5295

          k = 0.0000 0.5000 1.0000 (  1628 PWs)   bands (ev):

    -5.3033  -5.3033  -3.7539  -3.7539   4.6141   4.6141   5.8992   5.8992
    12.6333  12.6333  14.4822  14.4822  15.6225  15.6225  17.1254  17.1254
    21.4497  21.4497  22.2266  22.2266

          k = 0.0000 0.4500 0.9000 (  1616 PWs)   bands (ev):

    -6.0131  -4.8006  -3.8833  -3.1906   4.1917   4.4292   5.5356   7.0832
    11.5534  12.7237  14.2537  14.4972  14.6144  16.6815  17.2725  18.3763
    20.1144  21.3496  22.0946  22.3677

          k =-0.0000 0.4000 0.8000 (  1616 PWs)   bands (ev):

    -6.9056  -4.2444  -3.6019  -2.4569   3.8294   3.9629   5.3350   8.7042
    10.4605  11.6001  13.5974  13.6172  15.1429  17.1581  17.9129  18.9411
    20.1009  20.3508  21.9491  22.4268

          k =-0.0000 0.3500 0.7000 (  1618 PWs)   bands (ev):

    -7.7638  -3.6177  -3.1236  -1.5831   3.5564   3.5643   5.2766   9.1456
    10.3913  10.6084  12.7066  12.7870  16.0236  16.2297  16.7868  18.8873
    19.5500  21.6240  22.2730  22.9339

          k =-0.0000 0.3000 0.6000 (  1609 PWs)   bands (ev):

    -8.5313  -2.9062  -2.5046  -0.6106   3.2698   3.4110   5.3300   8.1738
     9.2698  11.1552  11.9196  13.2143  14.2409  15.1628  17.0411  18.0479
    19.6369  22.1753  23.2115  23.5523

          k = 0.0000 0.2500 0.5000 (  1610 PWs)   bands (ev):

    -9.1909  -2.1021  -1.7645   0.3913   3.0879   3.4562   5.4451   7.2121
     8.3027  10.5112  11.2295  12.4572  13.3781  15.1188  15.9692  18.6601
    20.5162  20.6943  23.0978  23.5901

          k = 0.0000 0.2000 0.4000 (  1613 PWs)   bands (ev):

    -9.7355  -1.2042  -0.9163   1.2850   3.0205   3.8166   5.5030   6.3165
     7.6029   9.7091  10.4697  10.9491  11.8308  14.4724  17.2348  18.2927
    19.9192  21.8752  23.3641  24.0255

          k = 0.0000 0.1500 0.3000 (  1607 PWs)   bands (ev):

   -10.1615  -0.2181   0.0239   1.9096   3.0669   4.6165   5.2965   5.4950
     7.3396   8.7215   9.1026  10.3340  10.6874  13.0799  16.1591  19.4561
    21.2732  23.1330  23.7510  24.5397

          k =-0.0000 0.1000 0.2000 (  1600 PWs)   bands (ev):

   -10.4670   0.8384   1.0260   2.2929   3.2191   4.7432   4.7643   5.7591
     7.2250   7.5525   8.1552   9.9802  10.0353  11.7963  14.2377  21.6901
    22.6697  24.1747  24.4276  25.1388

          k =-0.0000 0.0500 0.1000 (  1623 PWs)   bands (ev):

   -10.6506   1.9100   2.0144   2.5365   3.4392   4.0454   4.1192   6.0373
     6.5072   7.5436   8.2993   9.7147   9.7334  10.5646  12.7567  23.7145
    23.9855  24.5406  25.6768  25.8375

          k = 0.0000 0.0000 0.0000 (  1639 PWs)   bands (ev):

   -10.7119   2.6308   2.6308   2.6308   3.5716   3.5716   3.5716   5.7371
     6.0444   8.5062   8.5062   9.6167   9.6167   9.6167  12.1674  24.6956
    24.6956  24.6956  26.4710  26.4710

     Writing output data file Si.save

     init_run     :      0.13s CPU      0.13s WALL (       1 calls)
     electrons    :     39.76s CPU     42.71s WALL (       1 calls)

     Called by init_run:
     wfcinit      :      0.00s CPU      0.00s WALL (       1 calls)
     potinit      :      0.04s CPU      0.04s WALL (       1 calls)

     Called by electrons:
     c_bands      :     39.75s CPU     42.71s WALL (       1 calls)
     v_of_rho     :      0.03s CPU      0.03s WALL (       1 calls)

     Called by c_bands:
     init_us_2    :      0.07s CPU      0.07s WALL (      51 calls)
     cegterg      :     35.26s CPU     37.83s WALL (      65 calls)

     Called by *egterg:
     h_psi        :     29.10s CPU     31.28s WALL (    1096 calls)
     g_psi        :      0.09s CPU      0.09s WALL (     980 calls)
     cdiaghg      :      1.53s CPU      1.64s WALL (    1031 calls)

     Called by h_psi:
     add_vuspsi   :      0.82s CPU      0.87s WALL (    1096 calls)

     General routines
     calbec       :      0.98s CPU      1.07s WALL (    1096 calls)
     fft          :      0.02s CPU      0.02s WALL (      10 calls)
     fftw         :     25.76s CPU     27.68s WALL (   27036 calls)
     davcio       :      0.00s CPU      0.01s WALL (      51 calls)

     Parallel routines
     fft_scatter  :      0.64s CPU      0.69s WALL (   27046 calls)

     PWSCF        :    40.90s CPU        44.00s WALL


   This run was terminated on:  22:13:59  13Feb2023            

=------------------------------------------------------------------------------=
   JOB DONE.
=------------------------------------------------------------------------------=
