
     Program PWSCF v.5.1 starts on 13Feb2023 at 22:12: 9 

     This program is part of the open-source Quantum ESPRESSO suite
     for quantum simulation of materials; please cite
         "P. Giannozzi et al., J. Phys.:Condens. Matter 21 395502 (2009);
          URL http://www.quantum-espresso.org", 
     in publications or presentations arising from this work. More details at
     http://www.quantum-espresso.org/quote

     Parallel version (MPI), running on     1 processors
     Waiting for input...
     Reading input from standard input

     Current dimensions of program PWSCF are:
     Max number of different atomic species (ntypx) = 10
     Max number of k-points (npk) =  40000
     Max angular momentum in pseudopotentials (lmaxx) =  3

     Atomic positions and unit cell read from directory:
     ./out/Si.save/

               file Si.pbe-mt_fhi.UPF: wavefunction(s)  4f renormalized

     Subspace diagonalization in iterative solution of the eigenvalue problem:
     a serial algorithm will be used


     G-vector sticks info
     --------------------
     sticks:   dense  smooth     PW     G-vecs:    dense   smooth      PW
     Sum         733     733    223                12939    12939    2229



     bravais-lattice index     =            2
     lattice parameter (alat)  =      10.2623  a.u.
     unit-cell volume          =     270.1967 (a.u.)^3
     number of atoms/cell      =            2
     number of atomic types    =            1
     number of electrons       =        38.00
     number of Kohn-Sham states=           20
     kinetic-energy cutoff     =      50.0000  Ry
     charge density cutoff     =     200.0000  Ry
     Exchange-correlation      = PBE ( 1  4  3  4 0)

     celldm(1)=  10.262347  celldm(2)=   0.000000  celldm(3)=   0.000000
     celldm(4)=   0.000000  celldm(5)=   0.000000  celldm(6)=   0.000000

     crystal axes: (cart. coord. in units of alat)
               a(1) = (  -0.500000   0.000000   0.500000 )  
               a(2) = (   0.000000   0.500000   0.500000 )  
               a(3) = (  -0.500000   0.500000   0.000000 )  

     reciprocal axes: (cart. coord. in units 2 pi/alat)
               b(1) = ( -1.000000 -1.000000  1.000000 )  
               b(2) = (  1.000000  1.000000  1.000000 )  
               b(3) = ( -1.000000  1.000000 -1.000000 )  


     PseudoPot. # 1 for Si read from file:
     /home/acedemo/psudo/Si.pbe-mt_fhi.UPF
     MD5 check sum: 259057c2adf9952f9ced37ae3d9e311d
     Pseudo is Norm-conserving, Zval =  4.0
     Generated using FHI98PP, converted with fhi2upf.x v.5.0.2
     Using radial grid of  495 points,  3 beta functions with: 
                l(1) =   0
                l(2) =   1
                l(3) =   3

     atomic species   valence    mass     pseudopotential
        Si             4.00    28.08550     Si( 1.00)

     48 Sym. Ops., with inversion, found (24 have fractional translation)



   Cartesian axes

     site n.     atom                  positions (alat units)
         1           Si  tau(   1) = (   0.0000000   0.0000000   0.0000000  )
         2           Si  tau(   2) = (   0.2500000   0.2500000   0.2500000  )

     number of k points=    72 (tetrahedron method)
                       cart. coord. in units 2pi/alat
        k(    1) = (   0.0000000   0.0000000   0.0000000), wk =   0.0011574
        k(    2) = (  -0.0833333   0.0833333  -0.0833333), wk =   0.0092593
        k(    3) = (  -0.1666667   0.1666667  -0.1666667), wk =   0.0092593
        k(    4) = (  -0.2500000   0.2500000  -0.2500000), wk =   0.0092593
        k(    5) = (  -0.3333333   0.3333333  -0.3333333), wk =   0.0092593
        k(    6) = (  -0.4166667   0.4166667  -0.4166667), wk =   0.0092593
        k(    7) = (   0.5000000  -0.5000000   0.5000000), wk =   0.0046296
        k(    8) = (   0.0000000   0.1666667   0.0000000), wk =   0.0069444
        k(    9) = (  -0.0833333   0.2500000  -0.0833333), wk =   0.0277778
        k(   10) = (  -0.1666667   0.3333333  -0.1666667), wk =   0.0277778
        k(   11) = (  -0.2500000   0.4166667  -0.2500000), wk =   0.0277778
        k(   12) = (  -0.3333333   0.5000000  -0.3333333), wk =   0.0277778
        k(   13) = (   0.5833333  -0.4166667   0.5833333), wk =   0.0277778
        k(   14) = (   0.5000000  -0.3333333   0.5000000), wk =   0.0277778
        k(   15) = (   0.4166667  -0.2500000   0.4166667), wk =   0.0277778
        k(   16) = (   0.3333333  -0.1666667   0.3333333), wk =   0.0277778
        k(   17) = (   0.2500000  -0.0833333   0.2500000), wk =   0.0277778
        k(   18) = (   0.1666667  -0.0000000   0.1666667), wk =   0.0138889
        k(   19) = (   0.0000000   0.3333333   0.0000000), wk =   0.0069444
        k(   20) = (  -0.0833333   0.4166667  -0.0833333), wk =   0.0277778
        k(   21) = (  -0.1666667   0.5000000  -0.1666667), wk =   0.0277778
        k(   22) = (  -0.2500000   0.5833333  -0.2500000), wk =   0.0277778
        k(   23) = (   0.6666667  -0.3333333   0.6666667), wk =   0.0277778
        k(   24) = (   0.5833333  -0.2500000   0.5833333), wk =   0.0277778
        k(   25) = (   0.5000000  -0.1666667   0.5000000), wk =   0.0277778
        k(   26) = (   0.4166667  -0.0833333   0.4166667), wk =   0.0277778
        k(   27) = (   0.3333333   0.0000000   0.3333333), wk =   0.0138889
        k(   28) = (   0.0000000   0.5000000   0.0000000), wk =   0.0069444
        k(   29) = (  -0.0833333   0.5833333  -0.0833333), wk =   0.0277778
        k(   30) = (  -0.1666667   0.6666667  -0.1666667), wk =   0.0277778
        k(   31) = (   0.7500000  -0.2500000   0.7500000), wk =   0.0277778
        k(   32) = (   0.6666667  -0.1666667   0.6666667), wk =   0.0277778
        k(   33) = (   0.5833333  -0.0833333   0.5833333), wk =   0.0277778
        k(   34) = (   0.5000000   0.0000000   0.5000000), wk =   0.0138889
        k(   35) = (   0.0000000   0.6666667   0.0000000), wk =   0.0069444
        k(   36) = (  -0.0833333   0.7500000  -0.0833333), wk =   0.0277778
        k(   37) = (   0.8333333  -0.1666667   0.8333333), wk =   0.0277778
        k(   38) = (   0.7500000  -0.0833333   0.7500000), wk =   0.0277778
        k(   39) = (   0.6666667   0.0000000   0.6666667), wk =   0.0138889
        k(   40) = (   0.0000000   0.8333333   0.0000000), wk =   0.0069444
        k(   41) = (   0.9166667  -0.0833333   0.9166667), wk =   0.0277778
        k(   42) = (   0.8333333   0.0000000   0.8333333), wk =   0.0138889
        k(   43) = (   0.0000000  -1.0000000   0.0000000), wk =   0.0034722
        k(   44) = (  -0.1666667   0.3333333   0.0000000), wk =   0.0277778
        k(   45) = (  -0.2500000   0.4166667  -0.0833333), wk =   0.0555556
        k(   46) = (  -0.3333333   0.5000000  -0.1666667), wk =   0.0555556
        k(   47) = (   0.5833333  -0.4166667   0.7500000), wk =   0.0555556
        k(   48) = (   0.5000000  -0.3333333   0.6666667), wk =   0.0277778
        k(   49) = (  -0.1666667   0.5000000   0.0000000), wk =   0.0277778
        k(   50) = (  -0.2500000   0.5833333  -0.0833333), wk =   0.0555556
        k(   51) = (   0.6666667  -0.3333333   0.8333333), wk =   0.0555556
        k(   52) = (   0.5833333  -0.2500000   0.7500000), wk =   0.0555556
        k(   53) = (   0.5000000  -0.1666667   0.6666667), wk =   0.0555556
        k(   54) = (   0.4166667  -0.0833333   0.5833333), wk =   0.0555556
        k(   55) = (   0.3333333   0.0000000   0.5000000), wk =   0.0277778
        k(   56) = (  -0.1666667   0.6666667  -0.0000000), wk =   0.0277778
        k(   57) = (   0.7500000  -0.2500000   0.9166667), wk =   0.0555556
        k(   58) = (   0.6666667  -0.1666667   0.8333333), wk =   0.0555556
        k(   59) = (   0.5833333  -0.0833333   0.7500000), wk =   0.0555556
        k(   60) = (   0.5000000   0.0000000   0.6666667), wk =   0.0277778
        k(   61) = (   0.8333333  -0.1666667   1.0000000), wk =   0.0277778
        k(   62) = (   0.7500000  -0.0833333   0.9166667), wk =   0.0555556
        k(   63) = (   0.6666667   0.0000000   0.8333333), wk =   0.0277778
        k(   64) = (  -0.1666667  -1.0000000   0.0000000), wk =   0.0138889
        k(   65) = (   0.6666667  -0.3333333   1.0000000), wk =   0.0277778
        k(   66) = (   0.5833333  -0.2500000   0.9166667), wk =   0.0555556
        k(   67) = (   0.5000000  -0.1666667   0.8333333), wk =   0.0277778
        k(   68) = (   0.6666667  -0.1666667   1.0000000), wk =   0.0277778
        k(   69) = (   0.5833333  -0.0833333   0.9166667), wk =   0.0555556
        k(   70) = (   0.5000000   0.0000000   0.8333333), wk =   0.0277778
        k(   71) = (  -0.3333333  -1.0000000   0.0000000), wk =   0.0138889
        k(   72) = (  -0.5000000  -1.0000000   0.0000000), wk =   0.0069444

     Dense  grid:    12939 G-vectors     FFT dimensions: (  36,  36,  36)

     Largest allocated arrays     est. size (Mb)     dimensions
        Kohn-Sham Wavefunctions         0.50 Mb     (    1639,   20)
        NL pseudopotentials             0.55 Mb     (    1639,   22)
        Each V/rho on FFT grid          0.71 Mb     (   46656)
        Each G-vector array             0.10 Mb     (   12939)
        G-vector shells                 0.00 Mb     (     180)
     Largest temporary arrays     est. size (Mb)     dimensions
        Auxiliary wavefunctions         2.00 Mb     (    1639,   80)
        Each subspace H/S matrix        0.10 Mb     (      80,   80)
        Each <psi_i|beta_j> matrix      0.01 Mb     (      22,   20)

     The potential is recalculated from file :
     ./out/Si.save/charge-density.dat

     Starting wfc are   32 randomized atomic wfcs

     Band Structure Calculation
     Davidson diagonalization with overlap

     ethr =  4.21E-12,  avg # of iterations = 19.9

     Warning: ef = 22.831271 is above the highest band at k-point   7
              e  =  22.732751

     Warning: ef = 22.831271 is above the highest band at k-point  32
              e  =  22.402435

     Warning: ef = 22.831271 is above the highest band at k-point  34
              e  =  22.766514

     Warning: ef = 22.831271 is above the highest band at k-point  37
              e  =  22.661865

     Warning: ef = 22.831271 is above the highest band at k-point  38
              e  =  21.911561

     Warning: ef = 22.831271 is above the highest band at k-point  39
              e  =  22.189906

     Warning: ef = 22.831271 is above the highest band at k-point  40
              e  =  22.210801

     Warning: ef = 22.831271 is above the highest band at k-point  41
              e  =  20.800043

     Warning: ef = 22.831271 is above the highest band at k-point  42
              e  =  20.512913

     Warning: ef = 22.831271 is above the highest band at k-point  43
              e  =  19.683400

     Warning: ef = 22.831271 is above the highest band at k-point  52
              e  =  22.736961

     Warning: ef = 22.831271 is above the highest band at k-point  58
              e  =  21.997759

     Warning: ef = 22.831271 is above the highest band at k-point  59
              e  =  22.551386

     Warning: ef = 22.831271 is above the highest band at k-point  61
              e  =  21.439707

     Warning: ef = 22.831271 is above the highest band at k-point  62
              e  =  21.470309

     Warning: ef = 22.831271 is above the highest band at k-point  63
              e  =  21.959629

     Warning: ef = 22.831271 is above the highest band at k-point  64
              e  =  20.763752

     Warning: ef = 22.831271 is above the highest band at k-point  66
              e  =  22.577289

     Warning: ef = 22.831271 is above the highest band at k-point  67
              e  =  22.722261

     Warning: ef = 22.831271 is above the highest band at k-point  68
              e  =  21.911260

     Warning: ef = 22.831271 is above the highest band at k-point  70
              e  =  22.427901

     Warning: ef = 22.831271 is above the highest band at k-point  71
              e  =  22.780574

     Warning: ef = 22.831271 is above the highest band at k-point  72
              e  =  22.226569

     total cpu time spent up to now is       54.9 secs

     End of band structure calculation

          k = 0.0000 0.0000 0.0000 (  1639 PWs)   bands (ev):

   -10.7119   2.6308   2.6308   2.6308   3.5716   3.5716   3.5716   5.7371
     6.0444   8.5062   8.5062   9.6167   9.6167   9.6167  12.1674  24.6956
    24.6956  24.6956  26.4710  26.4710

          k =-0.0833 0.0833-0.0833 (  1612 PWs)   bands (ev):

   -10.6098   1.2545   2.2908   2.2908   3.8388   4.0141   4.0141   6.2273
     6.8229   7.6400   7.6400   9.1681  10.7763  10.7763  13.0024  23.5614
    23.5614  23.6118  25.9135  25.9135

          k =-0.1667 0.1667-0.1667 (  1591 PWs)   bands (ev):

   -10.3042  -0.6413   1.8310   1.8310   3.5984   4.5903   4.5903   6.8682
     6.9105   6.9105   7.6760   9.7617  12.5745  12.5745  14.6803  21.1567
    21.1567  21.7223  25.9528  25.9528

          k =-0.2500 0.2500-0.2500 (  1618 PWs)   bands (ev):

    -9.7976  -2.4589   1.4864   1.4864   3.3296   4.4840   4.4840   6.3932
     7.2904   7.2904   8.5959  12.0529  14.6070  14.6070  16.7041  18.6596
    18.6596  19.7419  26.1882  26.1882

          k =-0.3333 0.3333-0.3333 (  1616 PWs)   bands (ev):

    -9.0974  -4.1160   1.2726   1.2726   3.1650   3.9750   3.9750   5.7082
     8.5125   8.5125   9.8884  14.5574  16.0883  16.0883  17.0364  17.0364
    17.8683  19.0518  26.2496  26.2496

          k =-0.4167 0.4167-0.4167 (  1616 PWs)   bands (ev):

    -8.2327  -5.5605   1.1682   1.1682   3.1002   3.5719   3.5719   5.2250
    10.0887  10.0887  11.2409  13.9935  13.9935  15.4484  17.9829  19.3289
    19.3289  21.4093  23.8000  24.7515

          k = 0.5000-0.5000 0.5000 (  1622 PWs)   bands (ev):

    -7.5441  -6.4431   1.1395   1.1395   3.0889   3.4247   3.4247   5.0497
    11.6417  11.6417  12.0503  12.2384  12.2384  14.7067  20.0252  21.0508
    21.3296  21.3296  22.7328  22.7328

          k = 0.0000 0.1667 0.0000 (  1615 PWs)   bands (ev):

   -10.5757   1.6889   1.6889   1.9846   2.9217   4.6884   4.6884   5.9017
     6.9373   7.1246   8.6445   9.8333   9.8333  10.7106  13.5554  23.1016
    23.1016  24.7075  24.8188  25.1556

          k =-0.0833 0.2500-0.0833 (  1599 PWs)   bands (ev):

   -10.3379   0.0459   1.1722   1.7358   3.1143   4.8383   5.1969   5.3930
     7.7294   8.0420   8.0886   9.6076  11.1258  12.0832  15.1394  21.0659
    21.3595  23.7241  24.2693  24.8900

          k =-0.1667 0.3333-0.1667 (  1610 PWs)   bands (ev):

    -9.8981  -1.7932   0.8111   1.3008   3.2784   4.6516   5.1099   5.5339
     7.7118   8.1000   8.8706  11.3052  13.0434  14.0636  17.0593  18.5476
    19.1586  21.7191  24.4773  25.1314

          k =-0.2500 0.4167-0.2500 (  1606 PWs)   bands (ev):

    -9.2615  -3.5025   0.6197   0.9016   2.8990   4.3752   5.0203   6.0143
     7.2232   9.1324  10.1425  13.7317  15.1225  16.1926  16.2763  17.0347
    19.0412  19.8300  24.8221  25.5153

          k =-0.3333 0.5000-0.3333 (  1616 PWs)   bands (ev):

    -8.4448  -5.0235   0.5407   0.5972   2.6385   4.1882   4.4477   6.2088
     8.0250  10.6119  11.5025  13.7725  14.6044  16.3495  17.6380  17.8229
    18.9284  21.5820  23.7834  25.0114

          k = 0.5833-0.4167 0.5833 (  1615 PWs)   bands (ev):

    -7.5778  -6.2126   0.2309   0.7333   2.6560   4.0245   4.0532   6.0975
     9.6097  11.5518  12.1538  12.4967  13.5165  15.6579  19.2578  20.1327
    20.7874  21.8239  22.5339  23.8865

          k = 0.5000-0.3333 0.5000 (  1616 PWs)   bands (ev):

    -7.8426  -5.8831   0.0168   1.0068   2.9376   3.8129   3.9651   6.2315
     9.7352  10.2800  11.9160  13.1166  14.3788  15.6764  18.1325  19.5650
    21.0908  21.9485  23.1737  23.4532

          k = 0.4167-0.2500 0.4167 (  1611 PWs)   bands (ev):

    -8.7348  -4.5400  -0.0606   1.3832   3.4242   3.8418   3.9786   6.5599
     8.0702   8.9601  11.6261  13.8588  15.3503  16.4932  16.4958  17.9808
    18.8225  20.4272  24.9146  25.0129

          k = 0.3333-0.1667 0.3333 (  1605 PWs)   bands (ev):

    -9.4952  -2.9498   0.0231   1.8198   3.8892   4.0822   4.2983   6.6162
     6.7065   8.1578  10.2396  12.8186  14.0887  16.2981  16.4036  18.0309
    18.9412  19.7338  24.7055  25.3559

          k = 0.2500-0.0833 0.2500 (  1600 PWs)   bands (ev):

   -10.0671  -1.1887   0.2803   2.2740   4.1538   4.2022   4.8443   6.0148
     6.0223   8.4357   9.0629  10.5587  11.8927  14.3206  15.9759  18.7054
    21.3368  21.5942  24.3591  25.1789

          k = 0.1667-0.0000 0.1667 (  1592 PWs)   bands (ev):

   -10.4398   0.5872   0.7971   2.5967   3.8345   4.2507   4.5233   6.3062
     6.5260   7.7166   8.1348  10.0065  10.1038  12.4205  14.1769  21.2137
    23.1094  23.3590  24.5385  25.3947

          k = 0.0000 0.3333 0.0000 (  1607 PWs)   bands (ev):

   -10.1680   0.6047   0.6047   0.7460   1.9094   3.8591   6.2583   6.2583
     8.5075   8.6703   9.0594  10.5200  10.5200  11.3526  16.6558  20.6891
    20.6891  22.0902  23.3457  25.1884

          k =-0.0833 0.4167-0.0833 (  1616 PWs)   bands (ev):

    -9.7957  -1.0083   0.1959   0.4562   2.0430   3.2269   6.4882   6.7574
     9.0659   9.2947   9.6333  10.9373  11.8723  12.9137  18.4885  18.5749
    19.0073  21.8243  22.8580  24.5062

          k =-0.1667 0.5000-0.1667 (  1611 PWs)   bands (ev):

    -9.2247  -2.7254  -0.1185  -0.0365   1.8636   3.9712   6.2969   6.4205
     8.7623   9.8727  10.8540  12.9986  13.8414  15.1833  16.1414  16.9756
    20.4605  22.0847  22.1775  23.7726

          k =-0.2500 0.5833-0.2500 (  1610 PWs)   bands (ev):

    -8.4656  -4.2970  -0.6908  -0.0877   1.6621   5.1534   5.8169   6.2310
     8.3164  11.2618  12.1366  13.7151  14.4785  15.9050  16.2085  17.7585
    20.1060  22.6422  22.8048  23.1968

          k = 0.6667-0.3333 0.6667 (  1607 PWs)   bands (ev):

    -7.5748  -5.6307  -1.1775   0.0406   1.7117   5.2970   5.4615   7.2292
     8.1934  11.4958  12.2514  13.0352  14.2261  17.5821  18.5223  18.6497
    20.1295  21.1440  22.9867  23.5464

          k = 0.5833-0.2500 0.5833 (  1602 PWs)   bands (ev):

    -7.3133  -5.9540  -1.5267   0.3418   2.0034   4.9435   5.3158   8.0294
     8.9987   9.5649  10.9483  14.9041  15.1965  16.6420  17.4973  20.6873
    20.9904  21.1819  22.6920  23.4166

          k = 0.5000-0.1667 0.5000 (  1610 PWs)   bands (ev):

    -8.1792  -4.7672  -1.7094   0.8006   2.5137   4.7797   5.2126   7.8197
     7.8400   9.2967  11.5785  14.1308  15.1406  16.9681  17.0351  18.4962
    20.7815  22.1732  22.7885  23.6912

          k = 0.4167-0.0833 0.4167 (  1613 PWs)   bands (ev):

    -8.9936  -3.2566  -1.7090   1.3826   3.2164   4.7865   5.2076   6.3532
     6.7699   9.5840  12.1512  13.1680  13.8770  14.7062  18.2780  19.4232
    19.4599  20.3429  22.4001  23.8069

          k = 0.3333 0.0000 0.3333 (  1604 PWs)   bands (ev):

    -9.6285  -1.6770  -1.4089   1.9911   4.0474   4.6222   5.0920   5.6097
     5.8200   9.7773  10.7438  11.4421  12.3720  16.2011  16.2804  17.8187
    21.1420  21.2699  22.3621  24.0584

          k = 0.0000 0.5000 0.0000 (  1612 PWs)   bands (ev):

    -9.4911  -0.7459  -0.2671  -0.2671   1.0451   2.0305   7.8295   7.8295
     9.7504  10.5211  10.6970  11.7654  11.7654  12.1034  18.3539  18.3539
    19.5806  20.2332  21.5423  25.8018

          k =-0.0833 0.5833-0.0833 (  1617 PWs)   bands (ev):

    -8.9868  -1.9852  -1.0162  -0.5537   1.0668   2.0424   7.9814   8.0674
    10.4856  10.8857  11.7324  12.5400  13.1175  14.1866  16.2909  16.8404
    19.4839  21.1965  22.1328  25.1115

          k =-0.1667 0.6667-0.1667 (  1620 PWs)   bands (ev):

    -8.2902  -3.4627  -1.8418  -0.6567   0.9192   3.2824   7.4387   7.8136
    10.4562  11.8845  12.9361  13.7832  14.1523  15.2593  15.4638  16.8334
    19.9532  21.3136  22.5212  23.3304

          k = 0.7500-0.2500 0.7500 (  1617 PWs)   bands (ev):

    -7.4300  -4.8393  -2.4951  -0.5747   0.9574   4.8110   6.8749   7.5190
    10.1734  11.5918  12.5454  13.6286  14.8189  17.0181  17.4802  19.1332
    20.2403  20.4741  20.7069  23.1357

          k = 0.6667-0.1667 0.6667 (  1607 PWs)   bands (ev):

    -6.7509  -5.6883  -2.9643  -0.3106   1.2189   6.2092   6.4469   7.5797
     9.5813   9.6519  11.4720  15.4929  15.9795  17.0729  18.6399  19.8904
    20.0147  20.8422  21.5467  22.4024

          k = 0.5833-0.0833 0.5833 (  1611 PWs)   bands (ev):

    -7.4445  -4.7999  -3.2390   0.1270   1.6939   6.1875   6.5423   7.7661
     8.1351   9.1934  11.4479  14.1638  17.1828  17.4929  17.8525  19.1116
    20.4297  22.0739  22.3500  22.8479

          k = 0.5000 0.0000 0.5000 (  1604 PWs)   bands (ev):

    -8.3004  -3.5081  -3.1895   0.7157   2.3692   5.9309   6.3065   6.3663
     7.0109  10.6954  12.1073  12.1256  15.4532  16.2180  19.0889  19.2851
    20.4588  20.9376  22.2663  22.7665

          k = 0.0000 0.6667 0.0000 (  1624 PWs)   bands (ev):

    -8.5495  -2.4829  -0.8981  -0.8981   0.4192   0.8676   9.3207   9.3207
    10.7167  12.4038  12.8009  13.4486  13.5715  13.5715  16.2535  16.2535
    17.2900  19.9947  23.9132  24.6129

          k =-0.0833 0.7500-0.0833 (  1618 PWs)   bands (ev):

    -7.9179  -3.3997  -1.9600  -1.0588   0.4124   1.4030   9.2274   9.5272
    12.0387  12.7377  13.6159  13.9712  14.0423  15.1648  15.2373  16.1845
    17.3676  19.8973  22.2127  23.9466

          k = 0.8333-0.1667 0.8333 (  1619 PWs)   bands (ev):

    -7.1086  -4.3143  -3.2003  -1.0330   0.4195   2.8806   8.6698   9.2235
    11.8518  11.8626  13.5510  13.9284  15.1506  16.3022  16.9171  17.9945
    18.4509  19.6319  20.6715  22.6619

          k = 0.7500-0.0833 0.7500 (  1620 PWs)   bands (ev):

    -6.2568  -5.1790  -4.0329  -0.8215   0.6352   4.5868   8.1899   8.8821
     9.7822  10.3066  13.3946  15.8510  15.9156  17.1743  18.1402  18.3674
    19.4592  20.1377  21.8233  21.9116

          k = 0.6667 0.0000 0.6667 (  1612 PWs)   bands (ev):

    -6.5853  -4.8381  -4.3351  -0.4298   1.0623   6.3150   7.7510   8.0137
     8.6593   8.7304  13.4341  13.8937  17.6221  17.8942  18.5691  19.5276
    19.8707  20.6221  21.6969  22.1899

          k = 0.0000 0.8333 0.0000 (  1628 PWs)   bands (ev):

    -7.3516  -4.2639  -1.2791  -1.2791   0.0613   0.2384  10.7999  10.7999
    11.9569  13.6082  14.0397  14.0397  14.4308  15.2485  15.8310  16.2063
    16.2063  19.2827  21.6056  22.2108

          k = 0.9167-0.0833 0.9167 (  1622 PWs)   bands (ev):

    -6.6016  -5.0660  -2.3013  -1.3127   0.0976   1.1069  10.6295  10.9928
    12.2464  12.4995  13.6375  14.6225  15.3456  15.3516  16.1729  17.6301
    18.2549  19.2657  20.1149  20.8000

          k = 0.8333 0.0000 0.8333 (  1614 PWs)   bands (ev):

    -5.7878  -5.6430  -3.5481  -1.1590   0.2608   2.7475  10.0506  10.2354
    10.5747  10.7818  15.3427  15.7120  15.7415  15.9718  16.9096  17.1707
    19.1076  19.9634  20.1970  20.5129

          k = 0.0000-1.0000 0.0000 (  1604 PWs)   bands (ev):

    -5.9124  -5.9124  -1.4065  -1.4065  -0.0085  -0.0085  12.2973  12.2973
    12.4495  12.4495  13.4687  13.4687  14.5158  14.5158  18.3404  18.3404
    18.5889  18.5889  19.6834  19.6834

          k =-0.1667 0.3333 0.0000 (  1603 PWs)   bands (ev):

   -10.0329  -0.5559  -0.2983   1.7344   3.0390   4.3033   5.4019   5.7606
     7.3768   9.0786   9.5685  10.4872  11.0106  13.5309  16.8532  18.7093
    20.8140  22.7074  23.6146  24.3591

          k =-0.2500 0.4167-0.0833 (  1607 PWs)   bands (ev):

    -9.5273  -2.2288  -0.7255   1.2418   3.1606   4.4073   5.1212   5.9420
     7.6394   9.1845  10.8109  11.9304  12.9755  15.5514  16.2645  18.8098
    19.1027  21.7948  22.7212  24.5485

          k =-0.3333 0.5000-0.1667 (  1604 PWs)   bands (ev):

    -8.8286  -3.8682  -0.8762   0.6545   2.9559   4.2338   5.7411   5.9557
     8.0932   9.3638  12.1657  13.6428  14.4428  15.4298  16.9262  17.9585
    19.7491  21.2014  22.9985  24.6445

          k = 0.5833-0.4167 0.7500 (  1612 PWs)   bands (ev):

    -7.9656  -5.3048  -0.8832   0.1816   2.8974   3.7689   5.6607   7.1667
     8.0892  10.5598  11.8393  13.6154  14.8672  16.5265  17.5875  18.7831
    20.2674  22.1905  23.2156  23.4743

          k = 0.5000-0.3333 0.6667 (  1602 PWs)   bands (ev):

    -7.2776  -6.1851  -0.8491  -0.0177   2.9242   3.5559   5.6359   7.3806
     9.0820   9.9123  12.4157  12.8733  15.1396  16.3827  18.6569  19.7700
    21.2853  21.3634  22.7679  23.2053

          k =-0.1667 0.5000 0.0000 (  1617 PWs)   bands (ev):

    -9.3575  -1.5673  -1.1826   0.1727   2.2040   2.7559   6.4804   7.5290
     8.9811  10.5027  11.0205  11.6648  12.6260  14.4503  16.3576  18.4851
    20.3639  20.4977  22.7055  24.2556

          k =-0.2500 0.5833-0.0833 (  1611 PWs)   bands (ev):

    -8.7233  -3.0550  -1.5955  -0.4795   2.2257   3.6344   5.9006   7.7232
     9.6099  10.3989  12.4546  13.3437  14.1378  14.7329  16.4698  17.1441
    20.3493  21.9782  22.7670  23.6129

          k = 0.6667-0.3333 0.8333 (  1617 PWs)   bands (ev):

    -7.9101  -4.5356  -1.8270  -0.9168   2.2067   4.7890   5.6151   7.6042
     9.5361  11.0991  12.0591  14.0331  15.0162  15.4484  17.4827  19.1044
    20.1909  21.3007  21.6068  23.7863

          k = 0.5833-0.2500 0.7500 (  1607 PWs)   bands (ev):

    -7.0462  -5.7080  -2.1268  -0.9300   2.3823   4.6560   6.7517   7.6576
     8.9671  10.0065  12.5845  13.3416  16.1791  17.5195  18.2955  19.0425
    20.3017  21.0325  22.4075  22.7370

          k = 0.5000-0.1667 0.6667 (  1605 PWs)   bands (ev):

    -7.3145  -5.3734  -2.3855  -0.6146   2.7428   4.3945   7.0039   7.4767
     8.9961   9.6518  11.2306  14.9460  15.8492  16.7773  18.0910  19.8089
    20.4607  21.1488  22.4871  23.2793

          k = 0.4167-0.0833 0.5833 (  1610 PWs)   bands (ev):

    -8.2024  -4.0468  -2.4960  -0.0797   3.2545   4.2924   5.7895   7.0888
     8.7292  10.2499  11.6696  13.4226  15.1216  16.4978  17.3826  19.8971
    19.9380  21.1195  22.8830  23.3655

          k = 0.3333 0.0000 0.5000 (  1606 PWs)   bands (ev):

    -8.9585  -2.6144  -2.3004   0.6051   3.8167   4.0411   4.8621   6.8529
     7.6985  10.6233  11.4658  13.3984  13.7997  14.3622  17.4977  18.9588
    20.6551  20.7936  22.0334  23.6496

          k =-0.1667 0.6667-0.0000 (  1626 PWs)   bands (ev):

    -8.4190  -2.6765  -1.8171  -1.3037   1.5900   1.8341   7.5775   9.2185
    10.9217  12.0440  12.2965  13.4619  14.3564  14.6720  15.6220  16.5629
    18.4351  21.0478  23.5359  23.7910

          k = 0.7500-0.2500 0.9167 (  1621 PWs)   bands (ev):

    -7.6647  -3.7772  -2.6648  -1.6667   1.6448   3.1047   6.9700   9.4074
    11.2327  11.9151  12.5541  14.1365  14.8493  15.2109  16.8238  18.0937
    18.7600  20.9639  21.4345  22.8954

          k = 0.6667-0.1667 0.8333 (  1616 PWs)   bands (ev):

    -6.7799  -4.9638  -3.3102  -1.5983   1.7847   4.6967   6.4951   9.1698
     9.4825  11.6528  12.9734  13.8861  16.4367  16.7564  18.2623  18.7155
    19.1410  21.0567  21.2501  21.9978

          k = 0.5833-0.0833 0.7500 (  1614 PWs)   bands (ev):

    -6.5419  -5.2270  -3.7318  -1.2841   2.1184   5.7564   6.7447   7.6895
     9.0067  10.4862  12.5126  15.0661  15.8214  18.2561  18.7094  19.1425
    19.9287  20.7946  21.3278  22.5514

          k = 0.5000 0.0000 0.6667 (  1621 PWs)   bands (ev):

    -7.4007  -4.1978  -3.8004  -0.7667   2.6324   5.5311   5.9713   8.0584
     9.1002   9.3539  12.6541  13.0369  17.0464  17.6379  17.9903  19.3778
    20.0327  21.5751  21.8244  22.8794

          k = 0.8333-0.1667 1.0000 (  1617 PWs)   bands (ev):

    -7.2273  -4.2098  -2.1869  -2.0434   1.2285   1.3259   8.8293  10.8130
    11.8567  12.6069  13.9976  14.3864  14.4521  15.1990  16.3953  16.9835
    18.0184  20.0471  20.4820  21.4397

          k = 0.7500-0.0833 0.9167 (  1620 PWs)   bands (ev):

    -6.3760  -4.9347  -3.4108  -2.0427   1.3628   2.8409   8.2799   9.8049
    10.9808  12.5715  14.0299  14.5982  15.6001  16.6150  17.2018  17.7163
    18.5146  19.7968  20.6474  21.4703

          k = 0.6667 0.0000 0.8333 (  1620 PWs)   bands (ev):

    -5.8381  -5.2664  -4.2802  -1.7648   1.6464   4.6011   7.8272   7.9056
    10.5170  10.9853  14.6558  14.7907  15.7577  16.8487  18.2569  18.5326
    19.2903  20.1623  21.8072  21.9596

          k =-0.1667-1.0000 0.0000 (  1622 PWs)   bands (ev):

    -5.8040  -5.8040  -2.2763  -2.2763   1.1351   1.1351  10.2793  10.2793
    12.4307  12.4307  14.0552  14.0552  16.0062  16.0062  17.1671  17.1671
    18.6300  18.6300  20.7638  20.7638

          k = 0.6667-0.3333 1.0000 (  1610 PWs)   bands (ev):

    -8.0309  -3.3905  -2.9317  -1.2673   3.4539   3.4914   5.2837   8.8335
    10.0044  11.0053  12.4326  12.6755  15.4644  16.2981  16.5119  18.9917
    19.0693  22.3049  22.3340  23.0414

          k = 0.5833-0.2500 0.9167 (  1611 PWs)   bands (ev):

    -7.1760  -4.5961  -3.1100  -1.8593   3.4660   4.3766   5.4196   8.8016
     9.5521  11.0341  12.2239  14.4366  15.2103  17.1771  18.3303  19.2094
    19.9318  21.0884  21.4337  22.5773

          k = 0.5000-0.1667 0.8333 (  1610 PWs)   bands (ev):

    -6.4898  -5.4530  -3.0800  -2.0976   3.5006   4.3020   6.6756   7.4837
     9.3582  11.3967  13.1317  13.4704  16.7713  17.2543  18.3573  19.3009
    19.6633  20.7000  22.1388  22.7223

          k = 0.6667-0.1667 1.0000 (  1618 PWs)   bands (ev):

    -6.8646  -4.2421  -3.2786  -2.7226   3.0963   3.1272   6.3657   9.3335
    10.8526  12.3684  13.7728  13.9806  14.6128  16.7863  17.3547  18.6304
    19.7004  19.9527  21.3320  21.9113

          k = 0.5833-0.0833 0.9167 (  1615 PWs)   bands (ev):

    -6.0128  -4.9922  -3.8641  -2.8701   3.2989   4.6913   5.9970   7.3944
    11.1321  12.8554  13.7928  14.0070  15.8420  16.6838  17.0901  18.7502
    19.6863  21.1249  21.6833  22.8591

          k = 0.5000 0.0000 0.8333 (  1612 PWs)   bands (ev):

    -6.3175  -4.7162  -4.0707  -2.5110   3.6252   5.1084   5.6523   7.1170
    10.7269  11.6243  14.0337  14.1630  15.0957  17.1663  18.2059  19.1605
    20.1227  21.0429  21.2129  22.4279

          k =-0.3333-1.0000 0.0000 (  1618 PWs)   bands (ev):

    -5.5191  -5.5191  -3.2866  -3.2866   2.9866   2.9866   7.7541   7.7541
    12.5598  12.5598  14.3128  14.3128  16.0407  16.0407  17.2624  17.2624
    19.4235  19.4235  22.7806  22.7806

          k =-0.5000-1.0000 0.0000 (  1628 PWs)   bands (ev):

    -5.3033  -5.3033  -3.7539  -3.7539   4.6141   4.6141   5.8992   5.8992
    12.6333  12.6333  14.4822  14.4822  15.6225  15.6225  17.1254  17.1254
    21.4497  21.4497  22.2266  22.2266

     the Fermi energy is    22.8313 ev

     Writing output data file Si.save

     init_run     :      0.12s CPU      0.12s WALL (       1 calls)
     electrons    :     53.42s CPU     54.47s WALL (       1 calls)

     Called by init_run:
     wfcinit      :      0.00s CPU      0.00s WALL (       1 calls)
     potinit      :      0.03s CPU      0.03s WALL (       1 calls)

     Called by electrons:
     c_bands      :     53.21s CPU     54.27s WALL (       1 calls)
     v_of_rho     :      0.03s CPU      0.03s WALL (       1 calls)

     Called by c_bands:
     init_us_2    :      0.08s CPU      0.09s WALL (      72 calls)
     cegterg      :     47.53s CPU     48.48s WALL (     101 calls)

     Called by *egterg:
     h_psi        :     39.31s CPU     40.09s WALL (    1604 calls)
     g_psi        :      0.11s CPU      0.11s WALL (    1431 calls)
     cdiaghg      :      2.03s CPU      2.07s WALL (    1503 calls)

     Called by h_psi:
     add_vuspsi   :      1.10s CPU      1.11s WALL (    1604 calls)

     General routines
     calbec       :      1.24s CPU      1.26s WALL (    1604 calls)
     fft          :      0.01s CPU      0.01s WALL (      10 calls)
     fftw         :     34.99s CPU     35.70s WALL (   38960 calls)
     davcio       :      0.01s CPU      0.01s WALL (      72 calls)

     Parallel routines
     fft_scatter  :      0.88s CPU      0.89s WALL (   38970 calls)

     PWSCF        :    54.96s CPU        56.05s WALL


   This run was terminated on:  22:13: 5  13Feb2023            

=------------------------------------------------------------------------------=
   JOB DONE.
=------------------------------------------------------------------------------=
