
     Program PWSCF v.5.1 starts on 13Feb2023 at 22:11: 4 

     This program is part of the open-source Quantum ESPRESSO suite
     for quantum simulation of materials; please cite
         "P. Giannozzi et al., J. Phys.:Condens. Matter 21 395502 (2009);
          URL http://www.quantum-espresso.org", 
     in publications or presentations arising from this work. More details at
     http://www.quantum-espresso.org/quote

     Parallel version (MPI), running on     1 processors
     Waiting for input...
     Reading input from standard input

     Current dimensions of program PWSCF are:
     Max number of different atomic species (ntypx) = 10
     Max number of k-points (npk) =  40000
     Max angular momentum in pseudopotentials (lmaxx) =  3
               file Si.pbe-mt_fhi.UPF: wavefunction(s)  4f renormalized

     Subspace diagonalization in iterative solution of the eigenvalue problem:
     a serial algorithm will be used


     G-vector sticks info
     --------------------
     sticks:   dense  smooth     PW     G-vecs:    dense   smooth      PW
     Sum         733     733    211                12939    12939    2109



     bravais-lattice index     =            2
     lattice parameter (alat)  =      10.2623  a.u.
     unit-cell volume          =     270.1967 (a.u.)^3
     number of atoms/cell      =            2
     number of atomic types    =            1
     number of electrons       =        38.00
     number of Kohn-Sham states=           20
     kinetic-energy cutoff     =      50.0000  Ry
     charge density cutoff     =     200.0000  Ry
     convergence threshold     =      1.6E-09
     mixing beta               =       0.3000
     number of iterations used =            8  plain     mixing
     Exchange-correlation      = PBE ( 1  4  3  4 0)

     celldm(1)=  10.262347  celldm(2)=   0.000000  celldm(3)=   0.000000
     celldm(4)=   0.000000  celldm(5)=   0.000000  celldm(6)=   0.000000

     crystal axes: (cart. coord. in units of alat)
               a(1) = (  -0.500000   0.000000   0.500000 )  
               a(2) = (   0.000000   0.500000   0.500000 )  
               a(3) = (  -0.500000   0.500000   0.000000 )  

     reciprocal axes: (cart. coord. in units 2 pi/alat)
               b(1) = ( -1.000000 -1.000000  1.000000 )  
               b(2) = (  1.000000  1.000000  1.000000 )  
               b(3) = ( -1.000000  1.000000 -1.000000 )  


     PseudoPot. # 1 for Si read from file:
     /home/acedemo/psudo/Si.pbe-mt_fhi.UPF
     MD5 check sum: 259057c2adf9952f9ced37ae3d9e311d
     Pseudo is Norm-conserving, Zval =  4.0
     Generated using FHI98PP, converted with fhi2upf.x v.5.0.2
     Using radial grid of  495 points,  3 beta functions with: 
                l(1) =   0
                l(2) =   1
                l(3) =   3

     atomic species   valence    mass     pseudopotential
        Si             4.00    28.08550     Si( 1.00)

     48 Sym. Ops., with inversion, found (24 have fractional translation)



   Cartesian axes

     site n.     atom                  positions (alat units)
         1           Si  tau(   1) = (   0.0000000   0.0000000   0.0000000  )
         2           Si  tau(   2) = (   0.2500000   0.2500000   0.2500000  )

     number of k points=    10  Marzari-Vanderbilt smearing, width (Ry)=  0.0500
                       cart. coord. in units 2pi/alat
        k(    1) = (   0.0000000   0.0000000   0.0000000), wk =   0.0160000
        k(    2) = (  -0.2000000   0.2000000  -0.2000000), wk =   0.1280000
        k(    3) = (  -0.4000000   0.4000000  -0.4000000), wk =   0.1280000
        k(    4) = (   0.0000000   0.4000000   0.0000000), wk =   0.0960000
        k(    5) = (  -0.2000000   0.6000000  -0.2000000), wk =   0.3840000
        k(    6) = (   0.6000000  -0.2000000   0.6000000), wk =   0.3840000
        k(    7) = (   0.4000000   0.0000000   0.4000000), wk =   0.1920000
        k(    8) = (   0.0000000   0.8000000   0.0000000), wk =   0.0960000
        k(    9) = (   0.8000000   0.0000000   0.8000000), wk =   0.1920000
        k(   10) = (   0.6000000  -0.2000000   1.0000000), wk =   0.3840000

     Dense  grid:    12939 G-vectors     FFT dimensions: (  36,  36,  36)

     Largest allocated arrays     est. size (Mb)     dimensions
        Kohn-Sham Wavefunctions         0.50 Mb     (    1639,   20)
        NL pseudopotentials             0.55 Mb     (    1639,   22)
        Each V/rho on FFT grid          0.71 Mb     (   46656)
        Each G-vector array             0.10 Mb     (   12939)
        G-vector shells                 0.00 Mb     (     180)
     Largest temporary arrays     est. size (Mb)     dimensions
        Auxiliary wavefunctions         2.00 Mb     (    1639,   80)
        Each subspace H/S matrix        0.10 Mb     (      80,   80)
        Each <psi_i|beta_j> matrix      0.01 Mb     (      22,   20)
        Arrays for rho mixing           5.70 Mb     (   46656,    8)

     Initial potential from superposition of free atoms

     starting charge    7.99859, renormalised to   38.00000
     Starting wfc are   32 randomized atomic wfcs

     total cpu time spent up to now is        0.9 secs

     per-process dynamical memory:    18.7 Mb

     Self-consistent Calculation

     iteration #  1     ecut=    50.00 Ry     beta=0.30
     Davidson diagonalization with overlap
     ethr =  1.00E-02,  avg # of iterations =  4.5

     total cpu time spent up to now is        3.4 secs

     total energy              =      24.09982714 Ry
     Harris-Foulkes estimate   =      -0.37924534 Ry
     estimated scf accuracy    <      55.77152498 Ry

     iteration #  2     ecut=    50.00 Ry     beta=0.30
     Davidson diagonalization with overlap
     ethr =  1.00E-02,  avg # of iterations =  3.8

     total cpu time spent up to now is        5.5 secs

     total energy              =      18.40134531 Ry
     Harris-Foulkes estimate   =      17.14561526 Ry
     estimated scf accuracy    <       2.33144151 Ry

     iteration #  3     ecut=    50.00 Ry     beta=0.30
     Davidson diagonalization with overlap
     ethr =  6.14E-03,  avg # of iterations =  2.9

     total cpu time spent up to now is        7.3 secs

     total energy              =      17.88976278 Ry
     Harris-Foulkes estimate   =      17.88647216 Ry
     estimated scf accuracy    <       0.02201638 Ry

     iteration #  4     ecut=    50.00 Ry     beta=0.30
     Davidson diagonalization with overlap
     ethr =  5.79E-05,  avg # of iterations =  3.7

     total cpu time spent up to now is        8.9 secs

     total energy              =      17.87253046 Ry
     Harris-Foulkes estimate   =      17.86253820 Ry
     estimated scf accuracy    <       0.01795567 Ry

     iteration #  5     ecut=    50.00 Ry     beta=0.30
     Davidson diagonalization with overlap
     ethr =  4.73E-05,  avg # of iterations =  3.1

     total cpu time spent up to now is       11.1 secs

     total energy              =      17.88280159 Ry
     Harris-Foulkes estimate   =      17.84532283 Ry
     estimated scf accuracy    <       0.07589168 Ry

     iteration #  6     ecut=    50.00 Ry     beta=0.30
     Davidson diagonalization with overlap
     ethr =  4.73E-05,  avg # of iterations =  3.0

     total cpu time spent up to now is       13.3 secs

     total energy              =      17.86904131 Ry
     Harris-Foulkes estimate   =      17.86896176 Ry
     estimated scf accuracy    <       0.00018770 Ry

     iteration #  7     ecut=    50.00 Ry     beta=0.30
     Davidson diagonalization with overlap
     ethr =  4.94E-07,  avg # of iterations =  3.1

     total cpu time spent up to now is       15.2 secs

     total energy              =      17.86898109 Ry
     Harris-Foulkes estimate   =      17.86897487 Ry
     estimated scf accuracy    <       0.00001718 Ry

     iteration #  8     ecut=    50.00 Ry     beta=0.30
     Davidson diagonalization with overlap
     ethr =  4.52E-08,  avg # of iterations =  3.0

     total cpu time spent up to now is       17.0 secs

     total energy              =      17.86897695 Ry
     Harris-Foulkes estimate   =      17.86897268 Ry
     estimated scf accuracy    <       0.00000921 Ry

     iteration #  9     ecut=    50.00 Ry     beta=0.30
     Davidson diagonalization with overlap
     ethr =  2.42E-08,  avg # of iterations =  2.4

     total cpu time spent up to now is       18.7 secs

     total energy              =      17.86897513 Ry
     Harris-Foulkes estimate   =      17.86897512 Ry
     estimated scf accuracy    <       0.00000003 Ry

     iteration # 10     ecut=    50.00 Ry     beta=0.30
     Davidson diagonalization with overlap
     ethr =  7.21E-11,  avg # of iterations =  3.0

     total cpu time spent up to now is       20.6 secs

     total energy              =      17.86897513 Ry
     Harris-Foulkes estimate   =      17.86897512 Ry
     estimated scf accuracy    <       0.00000002 Ry

     iteration # 11     ecut=    50.00 Ry     beta=0.30
     Davidson diagonalization with overlap
     ethr =  5.77E-11,  avg # of iterations =  2.6

     total cpu time spent up to now is       22.4 secs

     total energy              =      17.86897512 Ry
     Harris-Foulkes estimate   =      17.86897512 Ry
     estimated scf accuracy    <          6.3E-09 Ry

     iteration # 12     ecut=    50.00 Ry     beta=0.30
     Davidson diagonalization with overlap
     ethr =  1.66E-11,  avg # of iterations =  2.4

     total cpu time spent up to now is       24.6 secs

     End of self-consistent calculation

          k = 0.0000 0.0000 0.0000 (  1639 PWs)   bands (ev):

   -10.7119   2.6308   2.6308   2.6308   3.5716   3.5716   3.5716   5.7371
     6.0444   8.5062   8.5062   9.6167   9.6167   9.6167  12.1674  24.6956
    24.6956  24.6957  27.1527  27.1527

          k =-0.2000 0.2000-0.2000 (  1606 PWs)   bands (ev):

   -10.1254  -1.3843   1.6771   1.6771   3.4814   4.6477   4.6477   6.7823
     6.9109   6.9109   7.9521  10.6033  13.3636  13.3636  15.4570  20.1478
    20.1478  20.9260  26.0389  26.0389

          k =-0.4000 0.4000-0.4000 (  1616 PWs)   bands (ev):

    -8.4147  -5.2933   1.1820   1.1820   3.1071   3.6347   3.6347   5.2996
     9.7539   9.7539  10.9798  14.4166  14.4166  15.5854  17.6202  18.8415
    18.8415  20.9619  24.2731  25.2074

          k = 0.0000 0.4000 0.0000 (  1607 PWs)   bands (ev):

    -9.9293   0.1821   0.2281   0.2281   1.5382   3.0533   6.8947   6.8947
     9.2839   9.3027   9.4572  10.9464  10.9464  11.6207  18.0534  19.7350
    19.7350  21.0636  22.6110  25.4052

          k =-0.2000 0.6000-0.2000 (  1619 PWs)   bands (ev):

    -8.5803  -3.6630  -1.0562  -0.3341   1.3548   4.1960   6.5614   6.8284
     9.1964  11.2325  12.2066  14.1346  14.2708  15.3397  15.6780  16.8328
    21.2745  21.4666  22.8750  23.2625

          k = 0.6000-0.2000 0.6000 (  1596 PWs)   bands (ev):

    -7.2060  -5.7481  -2.1816   0.1464   1.7497   5.4556   5.8379   8.5292
     8.7337   9.1765  10.8194  15.5367  15.7069  16.9395  17.2022  20.5727
    21.0107  21.1541  22.0380  23.1847

          k = 0.4000 0.0000 0.4000 (  1610 PWs)   bands (ev):

    -9.1568  -2.4671  -2.1821   1.5071   3.3575   5.0835   5.5364   5.7637
     6.2125  10.3452  11.2591  12.9694  13.7405  14.3771  17.9209  19.3163
    20.5416  20.5906  21.5707  23.5016

          k = 0.0000 0.8000 0.0000 (  1624 PWs)   bands (ev):

    -7.6111  -3.9145  -1.2232  -1.2232   0.1105   0.3304  10.4995  10.4995
    11.6870  13.3911  14.2002  14.3244  14.3244  15.3102  15.6362  15.7893
    15.7893  19.3013  22.2071  22.8563

          k = 0.8000 0.0000 0.8000 (  1622 PWs)   bands (ev):

    -5.7826  -5.5247  -3.9480  -1.0507   0.3789   3.4619   9.5561   9.7537
    10.1219  10.3599  15.2462  15.2501  16.1657  16.5520  17.1273  17.5636
    19.4831  20.0473  20.4491  20.8539

          k = 0.6000-0.2000 1.0000 (  1616 PWs)   bands (ev):

    -6.9056  -4.2444  -3.6019  -2.4569   3.8294   3.9629   5.3350   8.7042
    10.4605  11.6000  13.5974  13.6172  15.1428  17.1581  17.9129  18.9411
    20.1009  20.3508  21.9491  22.4268

     the Fermi energy is    22.7284 ev

!    total energy              =      17.86897512 Ry
     Harris-Foulkes estimate   =      17.86897512 Ry
     estimated scf accuracy    <          7.6E-11 Ry

     The total energy is the sum of the following terms:

     one-electron contribution =      66.17836881 Ry
     hartree contribution      =       2.30723199 Ry
     xc contribution           =     -33.82234271 Ry
     ewald contribution        =     -16.79708774 Ry
     smearing contrib. (-TS)   =       0.00280478 Ry

     convergence has been achieved in  12 iterations

     Forces acting on atoms (Ry/au):

     atom    1 type  1   force =    -0.00000000   -0.00000000    0.00000000
     atom    2 type  1   force =     0.00000000    0.00000000   -0.00000000

     Total force =     0.000000     Total SCF correction =     0.000000


     entering subroutine stress ...

          total   stress  (Ry/bohr**3)                   (kbar)     P=19198.82
   0.13051096  -0.00000000  -0.00000000      19198.82     -0.00     -0.00
  -0.00000000   0.13051096   0.00000000         -0.00  19198.82      0.00
  -0.00000000   0.00000000   0.13051096         -0.00      0.00  19198.82


     Writing output data file Si.save

     init_run     :      0.87s CPU      0.89s WALL (       1 calls)
     electrons    :     22.74s CPU     23.68s WALL (       1 calls)
     forces       :      0.10s CPU      0.11s WALL (       1 calls)
     stress       :      0.61s CPU      0.64s WALL (       1 calls)

     Called by init_run:
     wfcinit      :      0.75s CPU      0.76s WALL (       1 calls)
     potinit      :      0.04s CPU      0.04s WALL (       1 calls)

     Called by electrons:
     c_bands      :     19.64s CPU     20.48s WALL (      12 calls)
     sum_band     :      2.62s CPU      2.71s WALL (      12 calls)
     v_of_rho     :      0.47s CPU      0.48s WALL (      13 calls)
     mix_rho      :      0.03s CPU      0.04s WALL (      12 calls)

     Called by c_bands:
     init_us_2    :      0.32s CPU      0.33s WALL (     270 calls)
     cegterg      :     19.38s CPU     20.20s WALL (     120 calls)

     Called by *egterg:
     h_psi        :     16.17s CPU     16.84s WALL (     505 calls)
     g_psi        :      0.04s CPU      0.04s WALL (     375 calls)
     cdiaghg      :      0.59s CPU      0.60s WALL (     495 calls)

     Called by h_psi:
     add_vuspsi   :      0.45s CPU      0.51s WALL (     505 calls)

     General routines
     calbec       :      0.53s CPU      0.56s WALL (     525 calls)
     fft          :      0.18s CPU      0.19s WALL (     150 calls)
     fftw         :     16.45s CPU     17.07s WALL (   17598 calls)
     davcio       :      0.00s CPU      0.00s WALL (      10 calls)

     Parallel routines
     fft_scatter  :      0.46s CPU      0.47s WALL (   17748 calls)

     PWSCF        :    24.41s CPU        25.42s WALL


   This run was terminated on:  22:11:30  13Feb2023            

=------------------------------------------------------------------------------=
   JOB DONE.
=------------------------------------------------------------------------------=
