
     Program PWSCF v.5.1 starts on 12Feb2023 at 16:31:45 

     This program is part of the open-source Quantum ESPRESSO suite
     for quantum simulation of materials; please cite
         "P. Giannozzi et al., J. Phys.:Condens. Matter 21 395502 (2009);
          URL http://www.quantum-espresso.org", 
     in publications or presentations arising from this work. More details at
     http://www.quantum-espresso.org/quote

     Parallel version (MPI), running on     1 processors
     Waiting for input...
     Reading input from standard input
Warning: card   SI   0.0000000000D0   0.5000000000D0   0.5000000000D0 ignored
Warning: card   SI   0.2500000000D0   0.7500000000D0   0.7500000000D0 ignored
Warning: card   SI   -0.5000000000D0   0.0000000000D0   0.5000000000D0 ignored
Warning: card   SI   -0.2500000000D0   0.2500000000D0   0.7500000000D0 ignored
Warning: card   SI   -0.5000000000D0   0.5000000000D0   0.10000000000D0 ignored
Warning: card   SI   -0.2500000000D0   0.7500000000D0   1.25000000000D0 ignored

     Current dimensions of program PWSCF are:
     Max number of different atomic species (ntypx) = 10
     Max number of k-points (npk) =  40000
     Max angular momentum in pseudopotentials (lmaxx) =  3

     Atomic positions and unit cell read from directory:
     ./out/Si.save/

               file Si.pbe-mt_fhi.UPF: wavefunction(s)  4f renormalized

     Subspace diagonalization in iterative solution of the eigenvalue problem:
     a serial algorithm will be used


     G-vector sticks info
     --------------------
     sticks:   dense  smooth     PW     G-vecs:    dense   smooth      PW
     Sum         733     733    211                12939    12939    2109



     bravais-lattice index     =            2
     lattice parameter (alat)  =      10.2623  a.u.
     unit-cell volume          =     270.1967 (a.u.)^3
     number of atoms/cell      =            2
     number of atomic types    =            1
     number of electrons       =         8.00
     number of Kohn-Sham states=           24
     kinetic-energy cutoff     =      50.0000  Ry
     charge density cutoff     =     200.0000  Ry
     Exchange-correlation      = PBE ( 1  4  3  4 0)

     celldm(1)=  10.262347  celldm(2)=   0.000000  celldm(3)=   0.000000
     celldm(4)=   0.000000  celldm(5)=   0.000000  celldm(6)=   0.000000

     crystal axes: (cart. coord. in units of alat)
               a(1) = (  -0.500000   0.000000   0.500000 )  
               a(2) = (   0.000000   0.500000   0.500000 )  
               a(3) = (  -0.500000   0.500000   0.000000 )  

     reciprocal axes: (cart. coord. in units 2 pi/alat)
               b(1) = ( -1.000000 -1.000000  1.000000 )  
               b(2) = (  1.000000  1.000000  1.000000 )  
               b(3) = ( -1.000000  1.000000 -1.000000 )  


     PseudoPot. # 1 for Si read from file:
     /home/acedemo/psudo/Si.pbe-mt_fhi.UPF
     MD5 check sum: 259057c2adf9952f9ced37ae3d9e311d
     Pseudo is Norm-conserving, Zval =  4.0
     Generated using FHI98PP, converted with fhi2upf.x v.5.0.2
     Using radial grid of  495 points,  3 beta functions with: 
                l(1) =   0
                l(2) =   1
                l(3) =   3

     atomic species   valence    mass     pseudopotential
        Si             4.00    28.08550     Si( 1.00)

     48 Sym. Ops., with inversion, found (24 have fractional translation)



   Cartesian axes

     site n.     atom                  positions (alat units)
         1           Si  tau(   1) = (   0.0000000   0.0000000   0.0000000  )
         2           Si  tau(   2) = (   0.2500000   0.2500000   0.2500000  )

     number of k points=    51  Marzari-Vanderbilt smearing, width (Ry)=  0.0500
                       cart. coord. in units 2pi/alat
        k(    1) = (   0.5000000   0.5000000   0.5000000), wk =   0.0000000
        k(    2) = (   0.4500000   0.4500000   0.4500000), wk =   0.0014779
        k(    3) = (   0.4000000   0.4000000   0.4000000), wk =   0.0029558
        k(    4) = (   0.3500000   0.3500000   0.3500000), wk =   0.0044337
        k(    5) = (   0.3000000   0.3000000   0.3000000), wk =   0.0059116
        k(    6) = (   0.2500000   0.2500000   0.2500000), wk =   0.0073895
        k(    7) = (   0.2000000   0.2000000   0.2000000), wk =   0.0088674
        k(    8) = (   0.1500000   0.1500000   0.1500000), wk =   0.0103453
        k(    9) = (   0.1000000   0.1000000   0.1000000), wk =   0.0118232
        k(   10) = (   0.0500000   0.0500000   0.0500000), wk =   0.0133011
        k(   11) = (   0.0000000   0.0000000   0.0000000), wk =   0.0147790
        k(   12) = (   0.0000000   0.1000000   0.0000000), wk =   0.0168691
        k(   13) = (   0.0000000   0.2000000   0.0000000), wk =   0.0189591
        k(   14) = (   0.0000000   0.3000000   0.0000000), wk =   0.0210492
        k(   15) = (   0.0000000   0.4000000   0.0000000), wk =   0.0231392
        k(   16) = (   0.0000000   0.5000000   0.0000000), wk =   0.0252293
        k(   17) = (   0.0000000   0.6000000   0.0000000), wk =   0.0273194
        k(   18) = (   0.0000000   0.7000000   0.0000000), wk =   0.0294094
        k(   19) = (   0.0000000   0.8000000   0.0000000), wk =   0.0314995
        k(   20) = (   0.0000000   0.9000000   0.0000000), wk =   0.0335896
        k(   21) = (   0.0000000   1.0000000   0.0000000), wk =   0.0356796
        k(   22) = (   0.0000000   0.9750000   0.0750000), wk =   0.0370621
        k(   23) = (   0.0000000   0.9500000   0.1500000), wk =   0.0384445
        k(   24) = (  -0.0000000   0.9250000   0.2250000), wk =   0.0398270
        k(   25) = (  -0.0000000   0.9000000   0.3000000), wk =   0.0412094
        k(   26) = (   0.0000000   0.8750000   0.3750000), wk =   0.0425919
        k(   27) = (   0.0000000   0.8500000   0.4500000), wk =   0.0439743
        k(   28) = (   0.0000000   0.8250000   0.5250000), wk =   0.0453568
        k(   29) = (  -0.0000000   0.8000000   0.6000000), wk =   0.0467392
        k(   30) = (  -0.0000000   0.7750000   0.6750000), wk =   0.0481217
        k(   31) = (   0.0000000   0.7500000   0.7500000), wk =   0.0495041
        k(   32) = (   0.0000000   0.7250000   0.7750000), wk =   0.0500266
        k(   33) = (   0.0000000   0.7000000   0.8000000), wk =   0.0505491
        k(   34) = (   0.0000000   0.6750000   0.8250000), wk =   0.0510717
        k(   35) = (   0.0000000   0.6500000   0.8500000), wk =   0.0515942
        k(   36) = (   0.0000000   0.6250000   0.8750000), wk =   0.0521167
        k(   37) = (   0.0000000   0.6000000   0.9000000), wk =   0.0526392
        k(   38) = (   0.0000000   0.5750000   0.9250000), wk =   0.0531617
        k(   39) = (   0.0000000   0.5500000   0.9500000), wk =   0.0536842
        k(   40) = (   0.0000000   0.5250000   0.9750000), wk =   0.0542067
        k(   41) = (   0.0000000   0.5000000   1.0000000), wk =   0.0547293
        k(   42) = (   0.0000000   0.4500000   0.9000000), wk =   0.0574942
        k(   43) = (  -0.0000000   0.4000000   0.8000000), wk =   0.0602591
        k(   44) = (  -0.0000000   0.3500000   0.7000000), wk =   0.0630239
        k(   45) = (  -0.0000000   0.3000000   0.6000000), wk =   0.0657888
        k(   46) = (   0.0000000   0.2500000   0.5000000), wk =   0.0685537
        k(   47) = (   0.0000000   0.2000000   0.4000000), wk =   0.0713186
        k(   48) = (   0.0000000   0.1500000   0.3000000), wk =   0.0740835
        k(   49) = (  -0.0000000   0.1000000   0.2000000), wk =   0.0768484
        k(   50) = (  -0.0000000   0.0500000   0.1000000), wk =   0.0796133
        k(   51) = (   0.0000000   0.0000000   0.0000000), wk =   0.0823782

     Dense  grid:    12939 G-vectors     FFT dimensions: (  36,  36,  36)

     Largest allocated arrays     est. size (Mb)     dimensions
        Kohn-Sham Wavefunctions         0.60 Mb     (    1639,   24)
        NL pseudopotentials             0.55 Mb     (    1639,   22)
        Each V/rho on FFT grid          0.71 Mb     (   46656)
        Each G-vector array             0.10 Mb     (   12939)
        G-vector shells                 0.00 Mb     (     180)
     Largest temporary arrays     est. size (Mb)     dimensions
        Auxiliary wavefunctions         2.40 Mb     (    1639,   96)
        Each subspace H/S matrix        0.14 Mb     (      96,   96)
        Each <psi_i|beta_j> matrix      0.01 Mb     (      22,   24)

     The potential is recalculated from file :
     ./out/Si.save/charge-density.dat

     Starting wfc are   32 randomized atomic wfcs

     Band Structure Calculation
     Davidson diagonalization with overlap

     ethr =  2.00E-11,  avg # of iterations = 17.9

     total cpu time spent up to now is       62.8 secs

     End of band structure calculation

          k = 0.5000 0.5000 0.5000 (  1622 PWs)   bands (ev):

    -3.4011  -0.7376   5.0373   5.0373   7.7501   9.5854   9.5854  13.9689
    16.8057  16.8057  17.5116  17.5622  17.5622  19.0613  25.4513  26.0933
    27.8966  27.8966  28.0190  28.0190  31.8646  32.6622  32.6622  33.3476

          k = 0.4500 0.4500 0.4500 (  1610 PWs)   bands (ev):

    -3.5355  -0.5415   5.0553   5.0553   7.7707   9.6057   9.6057  14.0002
    16.1108  16.1108  17.0441  18.3320  18.3320  19.5023  24.2504  26.6723
    26.6723  27.4019  29.0938  29.0938  31.1924  32.7261  32.7261  33.4609

          k = 0.4000 0.4000 0.4000 (  1616 PWs)   bands (ev):

    -3.8533  -0.0390   5.1092   5.1092   7.8322   9.6607   9.6607  14.0801
    15.2331  15.2331  16.2275  19.4283  19.4283  20.1266  23.0603  25.3842
    25.3842  29.0131  29.8750  29.8750  29.9484  32.8014  32.8014  33.9932

          k = 0.3500 0.3500 0.3500 (  1610 PWs)   bands (ev):

    -4.2309   0.6443   5.1985   5.1985   7.9334   9.7302   9.7302  14.1269
    14.4592  14.4592  15.4588  20.0373  20.5198  20.5198  22.7358  24.2155
    24.2155  28.5260  30.2313  30.2313  30.7635  32.7738  32.7738  35.0839

          k = 0.3000 0.3000 0.3000 (  1615 PWs)   bands (ev):

    -4.6014   1.4381   5.3220   5.3220   8.0717   9.7766   9.7766  13.8235
    13.8457  13.8457  15.0964  19.1033  21.2484  21.2484  23.3576  23.5314
    23.5314  27.2425  30.3123  30.3123  32.4404  32.6821  32.6821  35.3424

          k = 0.2500 0.2500 0.2500 (  1618 PWs)   bands (ev):

    -4.9351   2.3064   5.4770   5.4770   8.2420   9.7475   9.7475  13.0826
    13.4484  13.4484  15.2031  18.0260  20.8804  20.8804  24.0724  24.0724
    24.1152  26.2032  30.2711  30.2711  32.5606  32.5606  33.9075  35.1596

          k = 0.2000 0.2000 0.2000 (  1606 PWs)   bands (ev):

    -5.2178   3.2248   5.6575   5.6575   8.4345   9.6044   9.6044  12.2123
    13.3045  13.3045  15.3569  17.1552  19.9852  19.9852  24.0736  25.2706
    25.2706  26.1435  30.1901  30.1901  32.4252  32.4252  34.0046  35.9424

          k = 0.1500 0.1500 0.1500 (  1600 PWs)   bands (ev):

    -5.4424   4.1671   5.8519   5.8519   8.6311   9.3642   9.3642  11.3147
    13.3907  13.3907  15.1685  16.8498  19.0726  19.0726  23.2530  26.6103
    26.6103  27.0023  30.1145  30.1145  32.2776  32.2776  33.4145  35.7445

          k = 0.1000 0.1000 0.1000 (  1606 PWs)   bands (ev):

    -5.6049   5.0882   6.0386   6.0386   8.7970   9.0965   9.0965  10.4473
    13.6203  13.6203  14.6832  17.0597  18.2790  18.2790  22.4239  27.9266
    27.9266  28.0029  30.0849  30.0849  32.0976  32.0976  32.6964  35.5985

          k = 0.0500 0.0500 0.0500 (  1630 PWs)   bands (ev):

    -5.7032   5.8775   6.1817   6.1817   8.8591   8.8856   8.8856   9.7539
    13.8669  13.8669  14.2890  17.3574  17.7076  17.7076  21.8128  28.9030
    28.9789  28.9789  30.1996  30.1996  31.8363  31.8363  31.9824  35.5094

          k = 0.0000 0.0000 0.0000 (  1639 PWs)   bands (ev):

    -5.7361   6.2370   6.2370   6.2370   8.8047   8.8047   8.8047   9.5069
    13.9776  13.9776  14.1447  17.4909  17.4909  17.4909  21.5803  29.3418
    29.3418  29.3418  30.4388  30.4388  31.6077  31.6077  31.6077  35.4794

          k = 0.0000 0.1000 0.0000 (  1627 PWs)   bands (ev):

    -5.6922   5.9541   6.0615   6.0615   8.6989   9.0338   9.0338   9.7793
    13.6483  14.0260  14.3366  17.5671  17.5671  17.7164  21.8985  28.6932
    28.6932  29.3966  29.9130  30.0065  31.8971  32.0208  32.0208  35.8124

          k = 0.0000 0.2000 0.0000 (  1599 PWs)   bands (ev):

    -5.5609   5.2925   5.6608   5.6608   8.4247   9.5940   9.5940  10.3417
    12.9883  14.1712  14.8675  17.7947  17.7947  18.1842  22.7951  27.4527
    27.4527  28.7424  29.1774  29.5660  32.3061  32.5907  32.5907  36.7711

          k = 0.0000 0.3000 0.0000 (  1607 PWs)   bands (ev):

    -5.3429   4.4783   5.1977   5.1977   8.0682  10.3199  10.3199  10.5995
    12.6901  14.4130  15.6460  18.1690  18.1690  18.7088  24.1077  26.1064
    26.1064  27.3698  28.2316  29.8695  32.5702  32.9937  32.9937  38.1455

          k = 0.0000 0.4000 0.0000 (  1607 PWs)   bands (ev):

    -5.0395   3.6068   4.7489   4.7489   7.7013  10.1121  11.1310  11.1310
    13.2461  14.7512  16.5879  18.6740  18.6740  19.2880  24.7912  24.7912
    25.6349  25.9646  27.2526  30.3548  32.6077  33.2652  33.2652  37.0726

          k = 0.0000 0.5000 0.0000 (  1612 PWs)   bands (ev):

    -4.6524   2.7137   4.3469   4.3469   7.3699   9.3679  11.9915  11.9915
    14.1879  15.1855  17.6213  19.2563  19.2563  19.9603  23.6017  23.6017
    24.5892  26.3004  27.1626  31.1237  32.3168  33.3162  33.3162  35.6259

          k = 0.0000 0.6000 0.0000 (  1620 PWs)   bands (ev):

    -4.1844   1.8158   4.0067   4.0067   7.1018   8.6533  12.8845  12.8845
    15.2290  15.7155  18.6583  19.7202  19.7202  20.7562  22.7490  22.7490
    23.2709  25.4534  28.4623  31.5504  32.2838  32.5962  32.5962  34.3724

          k = 0.0000 0.7000 0.0000 (  1632 PWs)   bands (ev):

    -3.6387   0.9253   3.7365   3.7365   6.9149   8.0411  13.8016  13.8016
    16.2836  16.3406  19.5376  19.5824  19.5824  21.6931  22.0239  22.7194
    22.7194  24.8606  29.4299  30.3111  31.0908  31.0908  32.2038  33.7106

          k = 0.0000 0.8000 0.0000 (  1624 PWs)   bands (ev):

    -3.0198   0.0536   3.5410   3.5410   6.8214   7.5520  14.7364  14.7364
    17.0601  17.3103  18.8201  18.8201  19.9714  20.8563  22.7720  23.5327
    23.5327  24.7772  28.8659  29.4151  29.4151  29.9298  30.7578  32.9991

          k = 0.0000 0.9000 0.0000 (  1608 PWs)   bands (ev):

    -2.3333  -0.7873   3.4227   3.4227   6.8308   7.1897  15.6671  15.6671
    17.8729  17.8840  17.8840  18.2763  19.7731  19.7749  23.9604  24.7421
    24.7421  25.2297  27.5684  27.7677  27.7677  28.6908  31.0591  32.3412

          k = 0.0000 1.0000 0.0000 (  1604 PWs)   bands (ev):

    -1.5863  -1.5863   3.3831   3.3831   6.9512   6.9512  16.3109  16.3109
    17.2271  17.2271  18.7779  18.7779  19.1339  19.1339  25.0801  25.0801
    25.9637  25.9637  26.4080  26.4080  27.4566  27.4566  31.6940  31.6940

          k = 0.0000 0.9750 0.0750 (  1618 PWs)   bands (ev):

    -1.7686  -1.3845   3.3101   3.3167   7.0463   7.1317  15.9102  16.1248
    16.9343  17.1621  18.6744  19.1370  19.2915  19.7061  24.4763  24.9953
    25.6171  25.9803  26.6629  26.8274  27.6214  27.9250  31.2811  31.5998

          k = 0.0000 0.9500 0.1500 (  1622 PWs)   bands (ev):

    -1.9239  -1.1756   3.1147   3.1624   7.3925   7.5472  14.8899  15.6935
    16.4480  17.3024  18.5310  19.4168  19.9355  20.8316  23.5978  24.6068
    25.2107  26.1215  27.0315  27.1082  28.5160  28.7115  30.5297  31.1952

          k =-0.0000 0.9250 0.2250 (  1622 PWs)   bands (ev):

    -2.0477  -0.9776   2.8556   2.9990   7.9258   8.1332  13.7237  15.0560
    16.0793  17.4538  18.4368  19.6887  20.6758  22.0572  22.7884  24.1027
    25.0282  26.2472  27.2757  27.4275  29.2856  29.5963  29.7399  31.0748

          k =-0.0000 0.9000 0.3000 (  1623 PWs)   bands (ev):

    -2.1381  -0.8143   2.5854   2.8942   8.5888   8.8386  12.5526  14.3324
    15.7848  17.4232  18.5204  19.9692  21.3687  22.1783  23.0499  23.8451
    25.0161  26.3812  27.3230  27.4042  29.1942  29.4429  30.4578  32.0023

          k = 0.0000 0.8750 0.3750 (  1614 PWs)   bands (ev):

    -2.1944  -0.7091   2.3380   2.8939   9.3422   9.6197  11.4320  13.6024
    15.5075  17.1635  18.7971  20.2571  21.4655  22.3281  22.9750  24.5331
    25.2898  26.5000  26.7067  27.0415  28.9935  29.9555  31.1700  33.4219

          k = 0.0000 0.8500 0.4500 (  1612 PWs)   bands (ev):

    -2.2173  -0.6746   2.1339   3.0159  10.1038  10.1564  10.7410  12.9013
    15.2257  16.7531  19.1772  20.5513  21.2173  22.6950  22.9848  24.9565
    25.6185  26.0796  26.4691  26.8004  29.0217  30.7421  31.6228  33.7814

          k = 0.0000 0.8250 0.5250 (  1611 PWs)   bands (ev):

    -2.2079  -0.7046   1.9853   3.2435   9.2560  10.9828  11.5294  12.2733
    14.9324  16.2529  19.6095  20.8555  21.1137  22.4880  23.5740  24.6316
    25.1988  25.5374  27.0779  27.2224  29.0315  31.0349  32.2216  33.2871

          k =-0.0000 0.8000 0.6000 (  1614 PWs)   bands (ev):

    -2.1678  -0.7804   1.9000   3.5234   8.4026  11.3536  12.1771  12.5036
    14.6297  15.7078  20.0677  21.1671  21.1795  22.3482  23.2327  24.5547
    24.5593  25.6099  27.4081  28.0819  28.7852  30.4900  32.5907  32.9375

          k =-0.0000 0.7750 0.6750 (  1621 PWs)   bands (ev):

    -2.0983  -0.8819   1.8825   3.7591   7.7522  10.8843  12.9766  13.5222
    14.3348  15.1558  20.5275  21.3408  21.5296  22.2080  22.2535  23.7230
    25.1460  25.9432  27.7568  28.1845  28.8162  29.5810  31.8978  32.5147

          k = 0.0000 0.7500 0.7500 (  1624 PWs)   bands (ev):

    -2.0006  -0.9958   1.9350   3.8107   7.4437  10.3653  13.6999  14.2259
    14.4208  14.7600  20.8748  21.1439  21.6765  21.8712  22.1005  23.1488
    25.7645  26.1108  27.7183  27.8504  28.8386  29.2009  31.3655  32.0939

          k = 0.0000 0.7250 0.7750 (  1616 PWs)   bands (ev):

    -1.9947  -0.9982   1.9397   3.7743   7.4978  10.3692  13.5520  14.1582
    14.3729  15.0236  20.6381  21.3326  21.5574  21.9397  22.1938  23.1878
    25.7638  26.0379  27.7044  27.7877  28.9817  29.1712  31.3755  32.0828

          k = 0.0000 0.7000 0.8000 (  1621 PWs)   bands (ev):

    -1.9773  -1.0054   1.9536   3.6721   7.6534  10.3808  13.2798  13.7808
    14.6427  15.4028  20.2963  21.3245  21.5167  22.1599  22.3530  23.2998
    25.7618  25.8521  27.3953  27.9630  29.0771  29.2786  31.4087  32.0594

          k = 0.0000 0.6750 0.8250 (  1620 PWs)   bands (ev):

    -1.9483  -1.0184   1.9768   3.5209   7.8942  10.3998  12.9844  13.3978
    14.9342  15.7854  19.9534  21.0601  21.6328  22.4933  22.5077  23.4697
    25.6095  25.7584  27.0399  28.1855  28.9096  29.6003  31.4755  32.0505

          k = 0.0000 0.6500 0.8500 (  1616 PWs)   bands (ev):

    -1.9076  -1.0384   2.0091   3.3402   8.2017  10.4257  12.6855  13.0189
    15.2281  16.1554  19.6266  20.7844  21.7327  22.6530  22.8759  23.6749
    25.3525  25.7532  26.6751  28.3785  28.6981  29.8883  31.5953  32.0896

          k = 0.0000 0.6250 0.8750 (  1616 PWs)   bands (ev):

    -1.8555  -1.0673   2.0504   3.1474   8.5597  10.4574  12.3899  12.6474
    15.5180  16.4977  19.3305  20.5053  21.8412  22.7894  23.2776  23.8910
    25.1148  25.7456  26.3148  28.2091  28.7573  30.1015  31.7922  32.2008

          k = 0.0000 0.6000 0.9000 (  1613 PWs)   bands (ev):

    -1.7917  -1.1073   2.1005   2.9564   8.9556  10.4930  12.1022  12.2857
    15.8007  16.7884  19.0871  20.2277  21.9673  22.9075  23.6850  24.0898
    24.9380  25.7289  25.9733  27.7929  28.9775  30.2165  32.0784  32.3917

          k = 0.0000 0.5750 0.9250 (  1615 PWs)   bands (ev):

    -1.7165  -1.1608   2.1593   2.7776   9.3786  10.5290  11.8278  11.9371
    16.0735  16.9885  18.9326  19.9551  22.1151  22.9807  24.0879  24.2387
    24.8806  25.5822  25.7793  27.3049  29.2034  30.2352  32.4420  32.6565

          k = 0.0000 0.5500 0.9500 (  1615 PWs)   bands (ev):

    -1.6298  -1.2300   2.2264   2.6191   9.8165  10.5578  11.5753  11.6084
    16.3337  17.0539  18.9075  19.6913  22.2856  22.9714  24.3515  24.4722
    24.9579  25.2782  25.7731  26.7844  29.4241  30.1717  32.8599  32.9840

          k = 0.0000 0.5250 0.9750 (  1615 PWs)   bands (ev):

    -1.5318  -1.3169   2.3016   2.4868  10.2406  10.5629  11.3248  11.3624
    16.5779  16.9775  19.0148  19.4405  22.4771  22.8641  24.5046  24.8105
    24.9848  25.0765  25.8151  26.2802  29.6399  30.0398  33.3095  33.3614

          k = 0.0000 0.5000 1.0000 (  1628 PWs)   bands (ev):

    -1.4224  -1.4224   2.3845   2.3845  10.5143  10.5143  11.2200  11.2200
    16.8009  16.8009  19.2089  19.2089  22.6823  22.6823  24.7235  24.7235
    25.0541  25.0541  25.9361  25.9361  29.8521  29.8521  33.7301  33.7301

          k = 0.0000 0.4500 0.9000 (  1616 PWs)   bands (ev):

    -1.9527  -0.9192   2.1862   2.7760  10.1503  10.2137  10.8868  12.4347
    15.7789  17.1291  18.8354  20.1519  21.7078  22.9636  23.5578  24.5468
    25.6474  25.8391  26.0788  26.5072  29.1002  30.6788  31.7518  34.0435

          k =-0.0000 0.4000 0.8000 (  1616 PWs)   bands (ev):

    -2.5801  -0.3301   2.2573   3.2449   9.6326  10.0144  10.6532  14.0112
    14.6839  16.4007  19.4986  20.6450  20.7324  21.7834  22.6486  24.9112
    25.9838  26.3130  26.8211  27.6000  29.1680  29.6718  32.0362  33.9095

          k =-0.0000 0.3500 0.7000 (  1618 PWs)   bands (ev):

    -3.2313   0.3442   2.5373   3.7640   9.2085   9.9448  10.4970  13.6323
    15.4962  15.6221  19.6167  19.7750  20.2895  20.8896  22.9133  24.0728
    25.9092  26.9236  27.5766  28.2556  29.8392  30.0047  33.2233  33.5975

          k =-0.0000 0.3000 0.6000 (  1609 PWs)   bands (ev):

    -3.8506   1.1025   2.9729   4.2981   8.8921  10.0241  10.3909  12.6470
    14.6758  16.9732  18.0507  18.9712  19.9167  21.6823  22.0621  24.4449
    25.1292  26.9874  27.3742  30.2174  30.5387  31.3513  32.0187  34.5282

          k = 0.0000 0.2500 0.5000 (  1610 PWs)   bands (ev):

    -4.4046   1.9423   3.5242   4.8089   8.6858  10.1145  10.4401  11.7356
    14.0023  16.4259  17.2974  18.3451  20.0802  21.2857  22.0923  24.3983
    25.4576  26.7623  27.8440  29.6088  31.1019  32.2284  33.9405  34.8776

          k = 0.0000 0.2000 0.4000 (  1613 PWs)   bands (ev):

    -4.8739   2.8580   4.1564   5.2650   8.5871   9.9445  10.8423  10.9027
    13.4458  15.0374  16.7213  17.8705  19.2469  21.2774  22.6345  24.8722
    26.0348  26.5780  28.3467  28.7136  31.5573  33.5558  34.8696  35.4177

          k = 0.0000 0.1500 0.3000 (  1607 PWs)   bands (ev):

    -5.2472   3.8365   4.8293   5.6499   8.5868   9.6588  10.1539  11.2160
    12.8989  14.2200  15.8706  17.5663  18.4280  20.0505  24.3360  24.5752
    26.2824  27.7367  28.6990  28.8867  31.8971  33.3568  34.0961  37.0661

          k =-0.0000 0.1000 0.2000 (  1600 PWs)   bands (ev):

    -5.5176   4.8442   5.4835   5.9548   8.6609   9.3336   9.5049  10.7617
    13.0134  13.9891  15.0185  17.4402  17.8873  18.8694  22.9852  26.6020
    27.5020  28.8797  28.9597  29.4566  32.0626  32.7129  33.1127  36.4807

          k =-0.0000 0.0500 0.1000 (  1623 PWs)   bands (ev):

    -5.6813   5.7730   6.0146   6.1615   8.7584   9.0090   9.0180   9.8859
    13.6400  13.9689  14.3827  17.4550  17.5871  17.9097  21.9679  28.4482
    28.6967  29.2274  29.8993  30.0272  31.9159  32.0358  32.1540  35.7554

          k = 0.0000 0.0000 0.0000 (  1639 PWs)   bands (ev):

    -5.7361   6.2370   6.2370   6.2370   8.8047   8.8047   8.8047   9.5069
    13.9776  13.9776  14.1447  17.4909  17.4909  17.4909  21.5803  29.3418
    29.3418  29.3418  30.4388  30.4388  31.6077  31.6077  31.6077  35.4794

     Writing output data file Si.save

     init_run     :      0.16s CPU      0.18s WALL (       1 calls)
     electrons    :     61.01s CPU     62.44s WALL (       1 calls)

     Called by init_run:
     wfcinit      :      0.00s CPU      0.00s WALL (       1 calls)
     potinit      :      0.04s CPU      0.04s WALL (       1 calls)

     Called by electrons:
     c_bands      :     61.01s CPU     62.44s WALL (       1 calls)
     v_of_rho     :      0.03s CPU      0.04s WALL (       1 calls)

     Called by c_bands:
     init_us_2    :      0.09s CPU      0.09s WALL (      51 calls)
     cegterg      :     54.76s CPU     56.10s WALL (      62 calls)

     Called by *egterg:
     h_psi        :     42.57s CPU     43.55s WALL (    1027 calls)
     g_psi        :      0.12s CPU      0.12s WALL (     914 calls)
     cdiaghg      :      3.35s CPU      3.45s WALL (     965 calls)

     Called by h_psi:
     add_vuspsi   :      1.19s CPU      1.24s WALL (    1027 calls)

     General routines
     calbec       :      1.35s CPU      1.39s WALL (    1027 calls)
     fft          :      0.02s CPU      0.02s WALL (      10 calls)
     fftw         :     37.90s CPU     38.75s WALL (   29306 calls)
     davcio       :      0.00s CPU      0.01s WALL (      51 calls)

     Parallel routines
     fft_scatter  :      0.93s CPU      0.95s WALL (   29316 calls)

     PWSCF        :  1m 1.47s CPU     1m 2.97s WALL


   This run was terminated on:  16:32:48  12Feb2023            

=------------------------------------------------------------------------------=
   JOB DONE.
=------------------------------------------------------------------------------=
