
     Program PWSCF v.5.1 starts on 12Feb2023 at 16:19:23 

     This program is part of the open-source Quantum ESPRESSO suite
     for quantum simulation of materials; please cite
         "P. Giannozzi et al., J. Phys.:Condens. Matter 21 395502 (2009);
          URL http://www.quantum-espresso.org", 
     in publications or presentations arising from this work. More details at
     http://www.quantum-espresso.org/quote

     Parallel version (MPI), running on     1 processors
     Waiting for input...
     Reading input from standard input
Warning: card   SI   0.0000000000D0   0.5000000000D0   0.5000000000D0 ignored
Warning: card   SI   0.2500000000D0   0.7500000000D0   0.7500000000D0 ignored
Warning: card   SI   -0.5000000000D0   0.0000000000D0   0.5000000000D0 ignored
Warning: card   SI   -0.2500000000D0   0.2500000000D0   0.7500000000D0 ignored
Warning: card   SI   -0.5000000000D0   0.5000000000D0   0.10000000000D0 ignored
Warning: card   SI   -0.2500000000D0   0.7500000000D0   1.25000000000D0 ignored

     Current dimensions of program PWSCF are:
     Max number of different atomic species (ntypx) = 10
     Max number of k-points (npk) =  40000
     Max angular momentum in pseudopotentials (lmaxx) =  3

     Atomic positions and unit cell read from directory:
     ./out/Si.save/

               file Si.pbe-mt_fhi.UPF: wavefunction(s)  4f renormalized

     Subspace diagonalization in iterative solution of the eigenvalue problem:
     a serial algorithm will be used


     G-vector sticks info
     --------------------
     sticks:   dense  smooth     PW     G-vecs:    dense   smooth      PW
     Sum         733     733    223                12939    12939    2229



     bravais-lattice index     =            2
     lattice parameter (alat)  =      10.2623  a.u.
     unit-cell volume          =     270.1967 (a.u.)^3
     number of atoms/cell      =            2
     number of atomic types    =            1
     number of electrons       =         8.00
     number of Kohn-Sham states=           24
     kinetic-energy cutoff     =      50.0000  Ry
     charge density cutoff     =     200.0000  Ry
     Exchange-correlation      = PBE ( 1  4  3  4 0)

     celldm(1)=  10.262347  celldm(2)=   0.000000  celldm(3)=   0.000000
     celldm(4)=   0.000000  celldm(5)=   0.000000  celldm(6)=   0.000000

     crystal axes: (cart. coord. in units of alat)
               a(1) = (  -0.500000   0.000000   0.500000 )  
               a(2) = (   0.000000   0.500000   0.500000 )  
               a(3) = (  -0.500000   0.500000   0.000000 )  

     reciprocal axes: (cart. coord. in units 2 pi/alat)
               b(1) = ( -1.000000 -1.000000  1.000000 )  
               b(2) = (  1.000000  1.000000  1.000000 )  
               b(3) = ( -1.000000  1.000000 -1.000000 )  


     PseudoPot. # 1 for Si read from file:
     /home/acedemo/psudo/Si.pbe-mt_fhi.UPF
     MD5 check sum: 259057c2adf9952f9ced37ae3d9e311d
     Pseudo is Norm-conserving, Zval =  4.0
     Generated using FHI98PP, converted with fhi2upf.x v.5.0.2
     Using radial grid of  495 points,  3 beta functions with: 
                l(1) =   0
                l(2) =   1
                l(3) =   3

     atomic species   valence    mass     pseudopotential
        Si             4.00    28.08550     Si( 1.00)

     48 Sym. Ops., with inversion, found (24 have fractional translation)



   Cartesian axes

     site n.     atom                  positions (alat units)
         1           Si  tau(   1) = (   0.0000000   0.0000000   0.0000000  )
         2           Si  tau(   2) = (   0.2500000   0.2500000   0.2500000  )

     number of k points=    72 (tetrahedron method)
                       cart. coord. in units 2pi/alat
        k(    1) = (   0.0000000   0.0000000   0.0000000), wk =   0.0011574
        k(    2) = (  -0.0833333   0.0833333  -0.0833333), wk =   0.0092593
        k(    3) = (  -0.1666667   0.1666667  -0.1666667), wk =   0.0092593
        k(    4) = (  -0.2500000   0.2500000  -0.2500000), wk =   0.0092593
        k(    5) = (  -0.3333333   0.3333333  -0.3333333), wk =   0.0092593
        k(    6) = (  -0.4166667   0.4166667  -0.4166667), wk =   0.0092593
        k(    7) = (   0.5000000  -0.5000000   0.5000000), wk =   0.0046296
        k(    8) = (   0.0000000   0.1666667   0.0000000), wk =   0.0069444
        k(    9) = (  -0.0833333   0.2500000  -0.0833333), wk =   0.0277778
        k(   10) = (  -0.1666667   0.3333333  -0.1666667), wk =   0.0277778
        k(   11) = (  -0.2500000   0.4166667  -0.2500000), wk =   0.0277778
        k(   12) = (  -0.3333333   0.5000000  -0.3333333), wk =   0.0277778
        k(   13) = (   0.5833333  -0.4166667   0.5833333), wk =   0.0277778
        k(   14) = (   0.5000000  -0.3333333   0.5000000), wk =   0.0277778
        k(   15) = (   0.4166667  -0.2500000   0.4166667), wk =   0.0277778
        k(   16) = (   0.3333333  -0.1666667   0.3333333), wk =   0.0277778
        k(   17) = (   0.2500000  -0.0833333   0.2500000), wk =   0.0277778
        k(   18) = (   0.1666667  -0.0000000   0.1666667), wk =   0.0138889
        k(   19) = (   0.0000000   0.3333333   0.0000000), wk =   0.0069444
        k(   20) = (  -0.0833333   0.4166667  -0.0833333), wk =   0.0277778
        k(   21) = (  -0.1666667   0.5000000  -0.1666667), wk =   0.0277778
        k(   22) = (  -0.2500000   0.5833333  -0.2500000), wk =   0.0277778
        k(   23) = (   0.6666667  -0.3333333   0.6666667), wk =   0.0277778
        k(   24) = (   0.5833333  -0.2500000   0.5833333), wk =   0.0277778
        k(   25) = (   0.5000000  -0.1666667   0.5000000), wk =   0.0277778
        k(   26) = (   0.4166667  -0.0833333   0.4166667), wk =   0.0277778
        k(   27) = (   0.3333333   0.0000000   0.3333333), wk =   0.0138889
        k(   28) = (   0.0000000   0.5000000   0.0000000), wk =   0.0069444
        k(   29) = (  -0.0833333   0.5833333  -0.0833333), wk =   0.0277778
        k(   30) = (  -0.1666667   0.6666667  -0.1666667), wk =   0.0277778
        k(   31) = (   0.7500000  -0.2500000   0.7500000), wk =   0.0277778
        k(   32) = (   0.6666667  -0.1666667   0.6666667), wk =   0.0277778
        k(   33) = (   0.5833333  -0.0833333   0.5833333), wk =   0.0277778
        k(   34) = (   0.5000000   0.0000000   0.5000000), wk =   0.0138889
        k(   35) = (   0.0000000   0.6666667   0.0000000), wk =   0.0069444
        k(   36) = (  -0.0833333   0.7500000  -0.0833333), wk =   0.0277778
        k(   37) = (   0.8333333  -0.1666667   0.8333333), wk =   0.0277778
        k(   38) = (   0.7500000  -0.0833333   0.7500000), wk =   0.0277778
        k(   39) = (   0.6666667   0.0000000   0.6666667), wk =   0.0138889
        k(   40) = (   0.0000000   0.8333333   0.0000000), wk =   0.0069444
        k(   41) = (   0.9166667  -0.0833333   0.9166667), wk =   0.0277778
        k(   42) = (   0.8333333   0.0000000   0.8333333), wk =   0.0138889
        k(   43) = (   0.0000000  -1.0000000   0.0000000), wk =   0.0034722
        k(   44) = (  -0.1666667   0.3333333   0.0000000), wk =   0.0277778
        k(   45) = (  -0.2500000   0.4166667  -0.0833333), wk =   0.0555556
        k(   46) = (  -0.3333333   0.5000000  -0.1666667), wk =   0.0555556
        k(   47) = (   0.5833333  -0.4166667   0.7500000), wk =   0.0555556
        k(   48) = (   0.5000000  -0.3333333   0.6666667), wk =   0.0277778
        k(   49) = (  -0.1666667   0.5000000   0.0000000), wk =   0.0277778
        k(   50) = (  -0.2500000   0.5833333  -0.0833333), wk =   0.0555556
        k(   51) = (   0.6666667  -0.3333333   0.8333333), wk =   0.0555556
        k(   52) = (   0.5833333  -0.2500000   0.7500000), wk =   0.0555556
        k(   53) = (   0.5000000  -0.1666667   0.6666667), wk =   0.0555556
        k(   54) = (   0.4166667  -0.0833333   0.5833333), wk =   0.0555556
        k(   55) = (   0.3333333   0.0000000   0.5000000), wk =   0.0277778
        k(   56) = (  -0.1666667   0.6666667  -0.0000000), wk =   0.0277778
        k(   57) = (   0.7500000  -0.2500000   0.9166667), wk =   0.0555556
        k(   58) = (   0.6666667  -0.1666667   0.8333333), wk =   0.0555556
        k(   59) = (   0.5833333  -0.0833333   0.7500000), wk =   0.0555556
        k(   60) = (   0.5000000   0.0000000   0.6666667), wk =   0.0277778
        k(   61) = (   0.8333333  -0.1666667   1.0000000), wk =   0.0277778
        k(   62) = (   0.7500000  -0.0833333   0.9166667), wk =   0.0555556
        k(   63) = (   0.6666667   0.0000000   0.8333333), wk =   0.0277778
        k(   64) = (  -0.1666667  -1.0000000   0.0000000), wk =   0.0138889
        k(   65) = (   0.6666667  -0.3333333   1.0000000), wk =   0.0277778
        k(   66) = (   0.5833333  -0.2500000   0.9166667), wk =   0.0555556
        k(   67) = (   0.5000000  -0.1666667   0.8333333), wk =   0.0277778
        k(   68) = (   0.6666667  -0.1666667   1.0000000), wk =   0.0277778
        k(   69) = (   0.5833333  -0.0833333   0.9166667), wk =   0.0555556
        k(   70) = (   0.5000000   0.0000000   0.8333333), wk =   0.0277778
        k(   71) = (  -0.3333333  -1.0000000   0.0000000), wk =   0.0138889
        k(   72) = (  -0.5000000  -1.0000000   0.0000000), wk =   0.0069444

     Dense  grid:    12939 G-vectors     FFT dimensions: (  36,  36,  36)

     Largest allocated arrays     est. size (Mb)     dimensions
        Kohn-Sham Wavefunctions         0.60 Mb     (    1639,   24)
        NL pseudopotentials             0.55 Mb     (    1639,   22)
        Each V/rho on FFT grid          0.71 Mb     (   46656)
        Each G-vector array             0.10 Mb     (   12939)
        G-vector shells                 0.00 Mb     (     180)
     Largest temporary arrays     est. size (Mb)     dimensions
        Auxiliary wavefunctions         2.40 Mb     (    1639,   96)
        Each subspace H/S matrix        0.14 Mb     (      96,   96)
        Each <psi_i|beta_j> matrix      0.01 Mb     (      22,   24)

     The potential is recalculated from file :
     ./out/Si.save/charge-density.dat

     Starting wfc are   32 randomized atomic wfcs

     Band Structure Calculation
     Davidson diagonalization with overlap

     ethr =  2.00E-11,  avg # of iterations = 19.0

     total cpu time spent up to now is       93.7 secs

     End of band structure calculation

          k = 0.0000 0.0000 0.0000 (  1639 PWs)   bands (ev):

    -5.7361   6.2370   6.2370   6.2370   8.8047   8.8047   8.8047   9.5069
    13.9776  13.9776  14.1447  17.4909  17.4909  17.4909  21.5803  29.3418
    29.3418  29.3418  30.4388  30.4388  31.6077  31.6077  31.6077  35.4794

          k =-0.0833 0.0833-0.0833 (  1612 PWs)   bands (ev):

    -5.6449   5.3753   6.0934   6.0934   8.8345   9.0158   9.0158  10.1843
    13.7079  13.7079  14.5301  17.1644  18.0578  18.0578  22.1880  28.3249
    28.3268  28.3268  30.0983  30.0983  32.0221  32.0221  32.4491  35.5623

          k =-0.1667 0.1667-0.1667 (  1591 PWs)   bands (ev):

    -5.3743   3.8524   5.7867   5.7867   8.5668   9.4514   9.4514  11.6140
    13.3408  13.3408  15.2849  16.8732  19.3683  19.3683  23.5466  26.1594
    26.1594  26.6812  30.1369  30.1369  32.3288  32.3288  33.6326  35.8050

          k =-0.2500 0.2500-0.2500 (  1618 PWs)   bands (ev):

    -4.9351   2.3064   5.4770   5.4770   8.2420   9.7475   9.7475  13.0826
    13.4484  13.4484  15.2031  18.0260  20.8804  20.8804  24.0724  24.0724
    24.1152  26.2032  30.2711  30.2711  32.5606  32.5606  33.9075  35.1596

          k =-0.3333 0.3333-0.3333 (  1616 PWs)   bands (ev):

    -4.3571   0.8989   5.2360   5.2360   7.9756   9.7506   9.7506  14.0874
    14.2342  14.2342  15.2702  19.7780  20.8400  20.8400  22.8817  23.8961
    23.8961  28.0874  30.2797  30.2797  31.3237  32.7481  32.7481  35.5139

          k =-0.4167 0.4167-0.4167 (  1616 PWs)   bands (ev):

    -3.7357  -0.2317   5.0873   5.0873   7.8072   9.6394   9.6394  14.0505
    15.5175  15.5175  16.5064  19.0562  19.0562  19.9515  23.4029  25.8075
    25.8075  28.4808  29.6640  29.6640  30.3725  32.7872  32.7872  33.7506

          k = 0.5000-0.5000 0.5000 (  1622 PWs)   bands (ev):

    -3.4011  -0.7376   5.0373   5.0373   7.7501   9.5854   9.5854  13.9689
    16.8057  16.8057  17.5116  17.5622  17.5622  19.0613  25.4513  26.0933
    27.8966  27.8966  28.0190  28.0190  31.8646  32.6622  32.6622  33.3476

          k = 0.0000 0.1667 0.0000 (  1615 PWs)   bands (ev):

    -5.6144   5.5379   5.8074   5.8074   8.5296   9.3827   9.3827  10.1517
    13.2083  14.1121  14.6584  17.7022  17.7022  18.0181  22.4404  27.8894
    27.8894  29.1694  29.4730  29.4960  32.1804  32.4183  32.4183  36.3904

          k =-0.0833 0.2500-0.0833 (  1599 PWs)   bands (ev):

    -5.4031   4.3049   5.4434   5.6326   8.5500   9.4461   9.9202  11.0835
    12.8520  14.0537  15.3884  17.3001  18.4344  19.2539  23.6106  26.0395
    26.3086  28.4141  28.7989  29.4069  32.2197  32.7717  33.5728  36.7250

          k =-0.1667 0.3333-0.1667 (  1610 PWs)   bands (ev):

    -5.0185   2.8035   5.1299   5.3089   8.6662   9.4414  10.3062  11.6260
    13.5766  14.1109  15.7587  17.6938  19.7802  20.8830  23.8430  24.2109
    25.1404  27.0012  28.9044  29.5732  32.2141  33.0473  34.3714  35.6417

          k =-0.2500 0.4167-0.2500 (  1606 PWs)   bands (ev):

    -4.4817   1.3670   4.9197   4.9554   8.5142   9.5340  10.3314  12.2030
    14.7656  14.8546  15.5041  19.2564  20.4217  21.6213  22.7975  23.4037
    24.5069  27.9204  29.0664  29.8295  32.0029  32.0955  33.3077  35.7934

          k =-0.3333 0.5000-0.3333 (  1616 PWs)   bands (ev):

    -3.8552   0.1361   4.6590   4.8295   8.3460   9.5052  10.1378  13.2515
    14.9640  15.9510  16.6241  18.8323  19.4129  21.3303  23.0288  24.3966
    25.6664  28.9464  29.0914  29.8660  30.2676  31.3215  33.5242  34.2960

          k = 0.5833-0.4167 0.5833 (  1615 PWs)   bands (ev):

    -3.3637  -0.6343   4.4539   4.8602   8.2645   9.5085   9.9387  14.1582
    15.2698  16.7594  17.6069  17.7202  18.4599  20.1214  24.8209  26.4438
    26.5672  27.6529  28.1738  28.6159  31.4924  31.9479  32.2115  33.6968

          k = 0.5000-0.3333 0.5000 (  1616 PWs)   bands (ev):

    -3.4847  -0.4565   4.3586   5.0034   8.2904   9.6256   9.8279  14.2662
    15.2007  15.7018  17.3667  18.2284  19.3779  20.0944  23.9388  25.7949
    27.1776  27.5051  28.6148  29.0166  31.3367  31.4506  32.9036  33.4538

          k = 0.4167-0.2500 0.4167 (  1611 PWs)   bands (ev):

    -4.0674   0.5166   4.3862   5.2432   8.4229   9.7952   9.8345  13.7064
    13.8224  15.3398  16.6816  18.8491  20.6304  21.2285  22.6901  23.7100
    25.3389  29.0027  29.3321  29.7926  30.2508  32.0355  33.1352  34.5684

          k = 0.3333-0.1667 0.3333 (  1605 PWs)   bands (ev):

    -4.6763   1.8315   4.5463   5.5535   8.6489   9.7127   9.9850  12.7257
    12.9142  15.2359  15.6044  18.6035  20.3805  22.0977  22.2463  24.1660
    24.6174  27.1957  29.1338  29.5992  32.4908  32.6502  33.3733  35.7572

          k = 0.2500-0.0833 0.2500 (  1600 PWs)   bands (ev):

    -5.1658   3.2901   4.8511   5.8831   8.9332   9.4118   9.7677  11.9285
    12.6973  14.1500  15.8025  17.3320  19.0897  20.7434  23.9095  24.3937
    26.3834  26.7316  28.8525  29.5250  32.4112  32.6728  34.6307  36.2076

          k = 0.1667-0.0000 0.1667 (  1592 PWs)   bands (ev):

    -5.4937   4.6429   5.3741   6.1188   9.0542   9.1505   9.2058  10.9937
    13.0797  13.8193  15.0941  17.3135  17.9452  19.2159  23.0582  26.1730
    27.8673  28.2742  28.9025  29.7137  32.2039  32.4393  33.4527  36.3583

          k = 0.0000 0.3333 0.0000 (  1607 PWs)   bands (ev):

    -5.2512   4.1917   5.0444   5.0444   7.9444  10.5028  10.5831  10.5831
    12.7960  14.5150  15.9454  18.3242  18.3242  18.8939  24.6030  25.6603
    25.6603  26.9007  27.9060  30.0074  32.6118  33.0979  33.0979  38.0659

          k =-0.0833 0.4167-0.0833 (  1616 PWs)   bands (ev):

    -4.9235   3.1060   4.6960   4.7096   7.9635  10.1160  10.9197  11.1454
    13.7558  14.7416  16.7124  18.1665  19.1420  20.3248  23.7991  24.1620
    25.9525  26.6051  27.4307  29.6704  32.2435  33.3069  34.0243  35.9046

          k =-0.1667 0.5000-0.1667 (  1611 PWs)   bands (ev):

    -4.4346   1.7961   4.2430   4.4906   8.2026  10.2855  10.7596  11.3144
    15.2850  15.3208  16.6446  19.0833  19.9749  21.4924  22.2507  23.1989
    26.0182  26.8131  27.8730  29.5210  31.6504  32.5504  33.4155  35.6669

          k =-0.2500 0.5833-0.2500 (  1610 PWs)   bands (ev):

    -3.8259   0.5613   3.8034   4.4064   8.2461  10.4780  11.1364  11.2851
    16.1367  16.4350  16.9736  18.7094  19.4186  21.6551  23.2898  24.2699
    25.1454  27.0764  28.3353  29.6642  30.5632  31.4334  33.3132  34.2057

          k = 0.6667-0.3333 0.6667 (  1607 PWs)   bands (ev):

    -3.2416  -0.3735   3.4587   4.4600   8.2758  10.3383  10.8649  12.6506
    15.6575  16.7221  17.9645  18.0606  18.7917  22.2997  24.0932  25.2469
    26.3564  26.7570  27.3042  28.9650  30.0807  32.3837  33.1022  33.4022

          k = 0.5833-0.2500 0.5833 (  1602 PWs)   bands (ev):

    -3.1270  -0.5334   3.2448   4.6440   8.4180  10.2933  10.6390  14.2043
    14.7759  15.0301  17.3601  19.7637  20.2919  20.7300  23.9234  26.1130
    26.5098  26.6521  27.9156  28.0594  31.0543  31.9821  32.6827  33.2371

          k = 0.5000-0.1667 0.5000 (  1610 PWs)   bands (ev):

    -3.6270   0.2260   3.1885   4.9391   8.6795  10.3509  10.4725  13.5029
    13.5773  15.6343  17.6630  18.9688  21.1118  21.6243  22.4472  24.1309
    26.1377  28.0134  28.3333  29.1386  30.9517  31.1702  33.2028  33.7645

          k = 0.4167-0.0833 0.4167 (  1613 PWs)   bands (ev):

    -4.2523   1.3732   3.3337   5.3074   9.0071  10.2429  10.4096  12.3410
    12.6072  16.5118  17.2656  18.4088  20.0011  21.6173  23.0364  24.1079
    25.4977  27.3592  28.1392  29.0770  31.5694  32.3834  33.2521  34.6944

          k = 0.3333 0.0000 0.3333 (  1604 PWs)   bands (ev):

    -4.7851   2.5149   3.8250   5.6716   9.2587   9.7993  10.0805  11.8732
    12.3600  15.5708  16.6899  17.7344  19.6059  21.7939  22.2658  24.9004
    26.7046  26.8463  27.3409  28.6088  32.4616  32.8100  34.5717  35.4465

          k = 0.0000 0.5000 0.0000 (  1612 PWs)   bands (ev):

    -4.6524   2.7137   4.3469   4.3469   7.3699   9.3679  11.9915  11.9915
    14.1879  15.1855  17.6213  19.2563  19.2563  19.9603  23.6017  23.6017
    24.5892  26.3004  27.1626  31.1237  32.3168  33.3162  33.3162  35.6259

          k =-0.0833 0.5833-0.0833 (  1617 PWs)   bands (ev):

    -4.2152   1.8042   3.8813   4.1000   7.4535   9.0165  12.2684  12.4736
    15.4749  15.7496  18.0883  19.5342  19.7400  21.0709  22.2072  22.8421
    24.4536  25.9340  28.0475  31.2010  31.4225  32.7074  32.8586  34.2742

          k =-0.1667 0.6667-0.1667 (  1620 PWs)   bands (ev):

    -3.6390   0.7754   3.2491   3.9926   7.6714   9.4878  12.1254  12.4344
    16.8383  17.1279  17.5558  18.6844  19.9347  21.2936  22.6166  24.1642
    24.8318  25.7663  27.8293  29.1456  31.1560  32.0320  32.5267  33.0133

          k = 0.7500-0.2500 0.7500 (  1617 PWs)   bands (ev):

    -3.0141  -0.1510   2.7022   4.0311   7.7589  10.6858  11.9527  12.1592
    16.4245  16.7810  18.3939  18.8579  19.1867  23.0223  23.9648  24.7478
    25.5665  25.7215  26.0915  28.9709  29.9305  31.3625  31.6227  33.8536

          k = 0.6667-0.1667 0.6667 (  1607 PWs)   bands (ev):

    -2.6899  -0.5657   2.3391   4.2112   7.9370  11.6839  11.8629  12.3841
    14.9698  15.0183  18.7844  20.1337  20.5924  23.0744  23.6442  24.5542
    25.0373  26.2630  27.2638  28.1276  31.0943  31.1544  31.3392  32.9133

          k = 0.5833-0.0833 0.5833 (  1611 PWs)   bands (ev):

    -3.0663  -0.0715   2.2198   4.5162   8.2593  11.5620  11.6617  13.3885
    13.5442  14.1478  18.8541  21.0603  21.2749  21.9815  22.4631  24.5697
    24.7955  26.5735  28.4399  29.2177  30.3546  31.5692  31.9238  33.2389

          k = 0.5000 0.0000 0.5000 (  1604 PWs)   bands (ev):

    -3.6892   0.7516   2.4843   4.9087   8.6816  11.0286  11.3625  12.3461
    12.6996  15.8566  18.8020  19.3818  19.6494  22.8844  23.2983  23.5814
    24.8658  27.2473  27.9419  30.1294  30.9938  31.4504  32.7193  33.2686

          k = 0.0000 0.6667 0.0000 (  1624 PWs)   bands (ev):

    -3.8290   1.2206   3.8185   3.8185   6.9674   8.2320  13.4935  13.4935
    15.9335  16.1217  19.2775  19.7193  19.7193  21.3646  22.4311  22.6138
    22.6138  25.0157  29.1422  30.7628  31.6306  31.6306  32.6585  33.8258

          k =-0.0833 0.7500-0.0833 (  1618 PWs)   bands (ev):

    -3.2935   0.4346   3.3328   3.6756   7.1296   8.1018  13.8047  13.8647
    17.0301  17.2332  18.4559  18.7475  20.6379  21.3825  21.8738  23.4221
    23.7378  25.1288  28.7130  29.3212  30.3763  30.7052  31.5157  33.1713

          k = 0.8333-0.1667 0.8333 (  1619 PWs)   bands (ev):

    -2.6636  -0.3342   2.6049   3.6817   7.3035   8.9554  13.6857  13.6869
    16.8283  16.9423  18.5575  18.9939  20.9193  21.9989  22.1834  24.8557
    24.8564  25.7113  26.7178  28.7719  29.4102  29.8545  30.5473  32.8608

          k = 0.7500-0.0833 0.7500 (  1620 PWs)   bands (ev):

    -2.1942  -0.8256   2.0260   3.8355   7.4797  10.4006  13.3348  13.5171
    15.1227  15.1807  20.3585  20.5533  20.8174  22.4517  23.1330  23.4459
    25.4095  26.1349  26.7666  28.9166  28.9820  29.5342  30.6148  32.9937

          k = 0.6667 0.0000 0.6667 (  1612 PWs)   bands (ev):

    -2.4674  -0.5392   1.8241   4.1243   7.8054  12.0420  12.7118  13.2851
    13.6224  13.9187  20.5809  21.1520  21.8365  21.9613  22.8124  23.7092
    24.4335  26.1814  28.4062  28.7746  29.1724  29.9071  32.7518  33.0540

          k = 0.0000 0.8333 0.0000 (  1628 PWs)   bands (ev):

    -2.7982  -0.2306   3.4929   3.4929   6.8127   7.4172  15.0496  15.0496
    17.3207  17.6408  18.5117  18.5117  19.9727  20.4856  23.1593  23.9062
    23.9062  24.8902  28.3925  28.8581  28.8581  29.6453  30.7149  32.7773

          k = 0.9167-0.0833 0.9167 (  1622 PWs)   bands (ev):

    -2.1839  -0.9190   3.0615   3.4591   7.0139   7.5823  15.2963  15.3805
    17.0775  17.1475  18.5321  18.9398  20.2115  20.3476  23.2584  25.0592
    25.1727  25.6107  26.8786  27.6530  28.1107  29.0805  30.5302  31.8582

          k = 0.8333 0.0000 0.8333 (  1614 PWs)   bands (ev):

    -1.7276  -1.3234   2.3912   3.5763   7.1735   8.7814  14.7496  15.2454
    15.3410  15.6994  20.1552  20.2550  20.4857  21.3786  22.9782  23.4529
    25.9146  26.8147  26.9772  27.4794  28.0477  29.3664  30.1380  31.3103

          k = 0.0000-1.0000 0.0000 (  1604 PWs)   bands (ev):

    -1.5863  -1.5863   3.3831   3.3831   6.9512   6.9512  16.3109  16.3109
    17.2271  17.2271  18.7779  18.7779  19.1339  19.1339  25.0801  25.0801
    25.9637  25.9637  26.4080  26.4080  27.4566  27.4566  31.6940  31.6940

          k =-0.1667 0.3333 0.0000 (  1603 PWs)   bands (ev):

    -5.1339   3.5048   4.6036   5.5300   8.5770   9.7617  10.3936  11.1367
    13.0646  14.4104  16.1656  17.6479  18.6701  20.4644  23.9078  24.7619
    25.9491  27.3491  28.6517  28.7027  31.7986  33.5162  34.4039  36.4711

          k =-0.2500 0.4167-0.0833 (  1607 PWs)   bands (ev):

    -4.6968   2.2641   4.0705   5.2549   8.8543   9.7346  10.8001  11.1320
    13.5464  15.5032  16.4936  18.2193  19.8668  21.8746  22.0120  24.3647
    25.7542  27.1903  27.9888  29.0090  31.6229  33.1118  34.2305  35.6014

          k =-0.3333 0.5000-0.1667 (  1604 PWs)   bands (ev):

    -4.1207   0.9623   3.8004   4.9274   8.8874   9.6250  10.8573  11.7791
    14.4257  16.0912  17.0212  18.7097  20.3124  21.5777  22.5522  24.1124
    25.0922  27.6738  28.6933  29.8499  30.7843  31.3739  33.4824  34.5411

          k = 0.5833-0.4167 0.7500 (  1612 PWs)   bands (ev):

    -3.4980  -0.1282   3.6727   4.6808   8.8265   9.4430  10.7762  12.9920
    15.3081  15.8602  17.4645  18.6189  19.5510  21.8263  23.1790  24.7929
    26.4330  27.6755  28.2846  29.0750  30.4827  31.5526  33.1951  33.6782

          k = 0.5000-0.3333 0.6667 (  1602 PWs)   bands (ev):

    -3.1592  -0.6269   3.6371   4.5891   8.8029   9.3607  10.7309  14.3033
    14.4936  16.1459  17.7051  18.0549  20.2028  20.5445  25.0903  25.3532
    27.0969  27.1227  27.1845  28.4713  31.4362  31.4693  32.2476  33.4131

          k =-0.1667 0.5000 0.0000 (  1617 PWs)   bands (ev):

    -4.5418   2.3114   3.9075   4.6097   8.0293   9.7592  11.0481  11.8712
    14.3627  15.6481  17.4536  18.4935  19.7478  21.3500  21.9943  23.9399
    25.3566  27.0346  27.1942  30.0302  31.4919  32.8002  34.1229  35.2347

          k =-0.2500 0.5833-0.0833 (  1611 PWs)   bands (ev):

    -4.0084   1.2612   3.3697   4.3212   8.3613   9.9818  10.7880  12.2551
    15.0749  17.1949  17.2445  18.8580  20.1774  21.2518  22.0714  24.2334
    25.1432  26.6110  27.7010  30.4777  30.6691  31.4109  32.7997  34.2199

          k = 0.6667-0.3333 0.8333 (  1617 PWs)   bands (ev):

    -3.3820   0.2064   3.0127   4.1104   8.4814  10.4432  11.0385  12.2347
    16.0773  16.2889  18.0394  18.9592  19.6173  21.9157  23.8022  24.5320
    25.1285  26.7781  27.5074  28.9247  30.0226  31.7266  32.4844  33.3173

          k = 0.5833-0.2500 0.7500 (  1607 PWs)   bands (ev):

    -2.8844  -0.5006   2.7668   4.0922   8.6080  10.1688  12.1264  12.5065
    14.5043  16.7909  17.9994  18.6303  20.6950  22.7058  24.0471  24.8952
    25.6250  26.0475  27.7434  28.1304  30.4984  31.3060  32.2182  32.7902

          k = 0.5000-0.1667 0.6667 (  1605 PWs)   bands (ev):

    -3.0203  -0.3132   2.6485   4.2650   8.8555   9.9815  12.0408  12.8957
    14.2097  15.5384  18.1036  19.8840  21.0049  22.1775  22.9234  24.9833
    25.6307  26.9719  27.4367  28.7903  30.4062  31.4708  32.2326  33.0870

          k = 0.4167-0.0833 0.5833 (  1610 PWs)   bands (ev):

    -3.6114   0.5644   2.7229   4.5821   9.2112   9.8426  11.5182  12.0018
    14.2344  15.8890  18.3928  19.2195  20.4524  21.6560  23.1982  24.2367
    25.1070  27.4493  27.8838  29.4154  30.7727  31.5616  32.1531  33.1942

          k = 0.3333 0.0000 0.5000 (  1606 PWs)   bands (ev):

    -4.2149   1.5439   3.1385   4.9641   9.4502   9.5848  10.9054  11.5709
    13.5202  17.0387  17.3152  18.4054  19.8887  21.4301  22.6405  24.7601
    25.4311  26.5640  27.9786  29.6478  31.2004  31.6503  33.5726  34.2187

          k =-0.1667 0.6667-0.0000 (  1626 PWs)   bands (ev):

    -3.7302   1.0453   3.3972   3.8250   7.6319   8.7175  12.2871  13.4421
    15.8216  17.2388  18.0095  19.5113  20.2117  21.0324  21.9704  23.4742
    23.9904  25.7968  28.3898  29.9236  31.2191  31.2339  32.9058  33.2880

          k = 0.7500-0.2500 0.9167 (  1621 PWs)   bands (ev):

    -3.1236   0.2097   2.8093   3.6079   7.9658   9.2467  11.9861  13.8065
    16.4566  16.7713  18.7525  19.0642  20.4374  21.1660  23.2828  23.4005
    25.7417  25.9498  27.4041  28.3444  29.8375  30.3936  32.0969  34.0837

          k = 0.6667-0.1667 0.8333 (  1616 PWs)   bands (ev):

    -2.5335  -0.5055   2.2881   3.6158   8.1191  10.5407  11.6906  13.7342
    14.6765  17.1239  18.4117  19.9877  20.8845  22.4266  23.9420  24.6853
    24.9209  25.3996  26.9796  28.7320  29.3547  29.8486  31.2323  34.0118

          k = 0.5833-0.0833 0.7500 (  1614 PWs)   bands (ev):

    -2.4624  -0.5765   1.9993   3.8146   8.3748  11.2930  12.2813  12.9552
    13.6354  15.5845  19.7645  20.1759  22.1622  22.3898  23.3654  23.5444
    25.3335  25.7777  27.5617  28.4366  29.1744  31.1302  32.3030  32.4568

          k = 0.5000 0.0000 0.6667 (  1621 PWs)   bands (ev):

    -3.0008   0.0143   2.0861   4.1600   8.7648  10.8806  11.7289  13.0731
    14.1709  14.4510  19.7961  20.3833  21.0905  21.7151  23.3258  24.1438
    24.7283  26.5835  28.1760  29.1395  30.0417  30.4895  32.2887  33.2594

          k = 0.8333-0.1667 1.0000 (  1617 PWs)   bands (ev):

    -2.7207  -0.2672   3.1130   3.3095   7.4616   7.9740  13.6613  15.0440
    16.8177  17.3160  18.5030  19.0882  20.2502  21.9384  22.0339  23.4634
    25.5201  25.5457  27.3407  28.1283  29.7262  29.9776  30.5689  32.0958

          k = 0.7500-0.0833 0.9167 (  1620 PWs)   bands (ev):

    -2.0909  -0.9106   2.4846   3.2656   7.7534   8.8789  13.3418  14.8173
    15.5026  17.1910  18.6199  20.3023  20.9559  22.0903  22.5945  24.2754
    24.7743  26.5008  27.2557  27.4613  29.2473  29.6711  29.8491  31.6001

          k = 0.6667 0.0000 0.8333 (  1620 PWs)   bands (ev):

    -1.9360  -1.0242   1.9865   3.4630   7.9901  10.4077  12.8847  13.2709
    15.0323  15.9108  19.8421  20.9690  21.6662  22.5571  22.6174  23.5353
    25.5238  25.7568  26.9185  28.2602  28.8385  29.7023  31.5083  32.0567

          k =-0.1667-1.0000 0.0000 (  1622 PWs)   bands (ev):

    -1.5482  -1.5482   3.0775   3.0775   7.5638   7.5638  15.1277  15.1277
    16.8276  16.8276  18.9880  18.9880  20.6157  20.6157  24.1228  24.1228
    25.5142  25.5142  27.4204  27.4204  28.4141  28.4141  30.7108  30.7108

          k = 0.6667-0.3333 1.0000 (  1610 PWs)   bands (ev):

    -3.4433   0.5877   2.6674   3.9423   9.0908   9.9549  10.4568  13.2960
    15.2089  16.1296  19.1642  19.4606  20.1187  21.1211  22.7930  24.0113
    25.7408  27.0734  27.2881  28.8902  30.0812  30.6001  32.8638  33.6653

          k = 0.5833-0.2500 0.9167 (  1611 PWs)   bands (ev):

    -2.8183  -0.1825   2.3200   3.6052   9.4653  10.0010  10.9821  13.7212
    14.3198  16.1814  19.1282  20.0256  21.2248  21.5407  23.2355  24.7371
    25.2782  26.7113  27.1052  28.5107  29.4750  29.8288  32.3044  33.7804

          k = 0.5000-0.1667 0.8333 (  1610 PWs)   bands (ev):

    -2.4574  -0.6120   2.2269   3.4757   9.5989   9.7842  12.3339  12.7395
    13.7795  17.3269  18.1488  19.6917  22.3946  23.0185  23.2158  24.0882
    24.7213  26.6744  27.0623  27.8972  29.1460  31.6806  31.9719  32.0494

          k = 0.6667-0.1667 1.0000 (  1618 PWs)   bands (ev):

    -2.5065  -0.4116   2.4685   3.0875   8.9203   9.3240  11.6081  14.5319
    15.0789  16.9395  18.9998  20.4373  20.9449  21.4823  22.8458  24.2438
    25.7976  26.8214  27.0516  27.2093  29.1621  29.2528  31.5111  33.4545

          k = 0.5833-0.0833 0.9167 (  1615 PWs)   bands (ev):

    -1.9827  -0.9185   2.1530   2.9332   9.2614  10.5272  11.3313  12.7193
    15.4495  17.3382  18.5256  20.4905  21.5175  23.1594  23.4497  24.3567
    25.0433  25.6583  26.4262  27.4169  28.8884  30.6601  31.4470  33.5908

          k = 0.5000 0.0000 0.8333 (  1612 PWs)   bands (ev):

    -2.2145  -0.6884   2.0281   3.1584   9.5631  10.7130  11.2242  12.4679
    15.0315  16.4267  19.4614  20.7525  21.1301  22.5480  23.4056  24.9367
    25.1347  25.7873  26.9028  26.9788  29.0487  31.0533  31.9531  33.4272

          k =-0.3333-1.0000 0.0000 (  1618 PWs)   bands (ev):

    -1.4665  -1.4665   2.5921   2.5921   8.9869   8.9869  12.9863  12.9863
    16.7967  16.7967  19.1305  19.1305  22.6868  22.6868  23.4312  23.4312
    24.9583  24.9583  27.5647  27.5647  29.3834  29.3834  31.0496  31.0496

          k =-0.5000-1.0000 0.0000 (  1628 PWs)   bands (ev):

    -1.4224  -1.4224   2.3845   2.3845  10.5143  10.5143  11.2200  11.2200
    16.8009  16.8009  19.2089  19.2089  22.6823  22.6823  24.7235  24.7235
    25.0541  25.0541  25.9361  25.9361  29.8521  29.8521  33.7301  33.7301

     the Fermi energy is     6.5832 ev

     Writing output data file Si.save

     init_run     :      0.25s CPU      0.25s WALL (       1 calls)
     electrons    :     90.73s CPU     92.82s WALL (       1 calls)

     Called by init_run:
     wfcinit      :      0.00s CPU      0.00s WALL (       1 calls)
     potinit      :      0.08s CPU      0.08s WALL (       1 calls)

     Called by electrons:
     c_bands      :     90.62s CPU     92.71s WALL (       1 calls)
     v_of_rho     :      0.07s CPU      0.07s WALL (       1 calls)

     Called by c_bands:
     init_us_2    :      0.12s CPU      0.12s WALL (      72 calls)
     cegterg      :     81.99s CPU     83.84s WALL (      91 calls)

     Called by *egterg:
     h_psi        :     63.33s CPU     64.82s WALL (    1530 calls)
     g_psi        :      0.17s CPU      0.17s WALL (    1367 calls)
     cdiaghg      :      4.75s CPU      4.84s WALL (    1439 calls)

     Called by h_psi:
     add_vuspsi   :      1.76s CPU      1.79s WALL (    1530 calls)

     General routines
     calbec       :      1.95s CPU      2.04s WALL (    1530 calls)
     fft          :      0.03s CPU      0.03s WALL (      10 calls)
     fftw         :     56.43s CPU     57.75s WALL (   42148 calls)
     davcio       :      0.01s CPU      0.04s WALL (      72 calls)

     Parallel routines
     fft_scatter  :      1.40s CPU      1.41s WALL (   42158 calls)

     PWSCF        :  1m33.53s CPU     1m35.77s WALL


   This run was terminated on:  16:20:59  12Feb2023            

=------------------------------------------------------------------------------=
   JOB DONE.
=------------------------------------------------------------------------------=
