
     Program PWSCF v.5.1 starts on 26Mar2023 at 11:49: 7 

     This program is part of the open-source Quantum ESPRESSO suite
     for quantum simulation of materials; please cite
         "P. Giannozzi et al., J. Phys.:Condens. Matter 21 395502 (2009);
          URL http://www.quantum-espresso.org", 
     in publications or presentations arising from this work. More details at
     http://www.quantum-espresso.org/quote

     Parallel version (MPI), running on     1 processors
     Waiting for input...
     Reading input from standard input
Warning: card   P     0.0000000000D0   0.5000000000D0   0.5000000000D0 ignored
Warning: card   P     0.2500000000D0   0.7500000000D0   0.7500000000D0 ignored
Warning: card   SI   -0.5000000000D0   0.0000000000D0   0.5000000000D0 ignored
Warning: card   SI   -0.2500000000D0   0.2500000000D0   0.7500000000D0 ignored
Warning: card   SI   -0.5000000000D0   0.5000000000D0   0.10000000000D0 ignored
Warning: card   SI   -0.2500000000D0   0.7500000000D0   1.25000000000D0 ignored

     Current dimensions of program PWSCF are:
     Max number of different atomic species (ntypx) = 10
     Max number of k-points (npk) =  40000
     Max angular momentum in pseudopotentials (lmaxx) =  3

     Atomic positions and unit cell read from directory:
     ./out/Si.save/

               file Si.pbe-mt_fhi.UPF: wavefunction(s)  4f renormalized
               file B.pbe-mt_fhi.UPF: wavefunction(s)  4f renormalized
               file P.pbe-mt_fhi.UPF: wavefunction(s)  4f renormalized

     Subspace diagonalization in iterative solution of the eigenvalue problem:
     a serial algorithm will be used


     G-vector sticks info
     --------------------
     sticks:   dense  smooth     PW     G-vecs:    dense   smooth      PW
     Sum         733     733    211                12939    12939    2109



     bravais-lattice index     =            2
     lattice parameter (alat)  =      10.2623  a.u.
     unit-cell volume          =     270.1967 (a.u.)^3
     number of atoms/cell      =            2
     number of atomic types    =            3
     number of electrons       =         8.00
     number of Kohn-Sham states=           24
     kinetic-energy cutoff     =      50.0000  Ry
     charge density cutoff     =     200.0000  Ry
     Exchange-correlation      = PBE ( 1  4  3  4 0)

     celldm(1)=  10.262347  celldm(2)=   0.000000  celldm(3)=   0.000000
     celldm(4)=   0.000000  celldm(5)=   0.000000  celldm(6)=   0.000000

     crystal axes: (cart. coord. in units of alat)
               a(1) = (  -0.500000   0.000000   0.500000 )  
               a(2) = (   0.000000   0.500000   0.500000 )  
               a(3) = (  -0.500000   0.500000   0.000000 )  

     reciprocal axes: (cart. coord. in units 2 pi/alat)
               b(1) = ( -1.000000 -1.000000  1.000000 )  
               b(2) = (  1.000000  1.000000  1.000000 )  
               b(3) = ( -1.000000  1.000000 -1.000000 )  


     PseudoPot. # 1 for Si read from file:
     /home/acedemo/psudo/Si.pbe-mt_fhi.UPF
     MD5 check sum: 259057c2adf9952f9ced37ae3d9e311d
     Pseudo is Norm-conserving, Zval =  4.0
     Generated using FHI98PP, converted with fhi2upf.x v.5.0.2
     Using radial grid of  495 points,  3 beta functions with: 
                l(1) =   0
                l(2) =   1
                l(3) =   3

     PseudoPot. # 2 for  B read from file:
     /home/acedemo/psudo/B.pbe-mt_fhi.UPF
     MD5 check sum: 3ba04917d1d3a8de85490f79a9c37fe5
     Pseudo is Norm-conserving + core correction, Zval =  3.0
     Generated using FHI98PP, converted with fhi2upf.x v.5.0.2
     Using radial grid of  453 points,  3 beta functions with: 
                l(1) =   0
                l(2) =   1
                l(3) =   3

     PseudoPot. # 3 for  P read from file:
     /home/acedemo/psudo/P.pbe-mt_fhi.UPF
     MD5 check sum: 7191c457fb61afa58d0f00d0e4a443c1
     Pseudo is Norm-conserving, Zval =  5.0
     Generated using FHI98PP, converted with fhi2upf.x v.5.0.2
     Using radial grid of  499 points,  3 beta functions with: 
                l(1) =   0
                l(2) =   1
                l(3) =   3

     atomic species   valence    mass     pseudopotential
        Si             4.00    28.08550     Si( 1.00)
        B              3.00    10.81100      B( 1.00)
        P              5.00    30.97376      P( 1.00)

     24 Sym. Ops. (no inversion) found



   Cartesian axes

     site n.     atom                  positions (alat units)
         1           B   tau(   1) = (   0.0000000   0.0000000   0.0000000  )
         2           P   tau(   2) = (   0.2500000   0.2500000   0.2500000  )

     number of k points=    51  Marzari-Vanderbilt smearing, width (Ry)=  0.0500
                       cart. coord. in units 2pi/alat
        k(    1) = (   0.5000000   0.5000000   0.5000000), wk =   0.0000000
        k(    2) = (   0.4500000   0.4500000   0.4500000), wk =   0.0014779
        k(    3) = (   0.4000000   0.4000000   0.4000000), wk =   0.0029558
        k(    4) = (   0.3500000   0.3500000   0.3500000), wk =   0.0044337
        k(    5) = (   0.3000000   0.3000000   0.3000000), wk =   0.0059116
        k(    6) = (   0.2500000   0.2500000   0.2500000), wk =   0.0073895
        k(    7) = (   0.2000000   0.2000000   0.2000000), wk =   0.0088674
        k(    8) = (   0.1500000   0.1500000   0.1500000), wk =   0.0103453
        k(    9) = (   0.1000000   0.1000000   0.1000000), wk =   0.0118232
        k(   10) = (   0.0500000   0.0500000   0.0500000), wk =   0.0133011
        k(   11) = (   0.0000000   0.0000000   0.0000000), wk =   0.0147790
        k(   12) = (   0.0000000   0.1000000   0.0000000), wk =   0.0168691
        k(   13) = (   0.0000000   0.2000000   0.0000000), wk =   0.0189591
        k(   14) = (   0.0000000   0.3000000   0.0000000), wk =   0.0210492
        k(   15) = (   0.0000000   0.4000000   0.0000000), wk =   0.0231392
        k(   16) = (   0.0000000   0.5000000   0.0000000), wk =   0.0252293
        k(   17) = (   0.0000000   0.6000000   0.0000000), wk =   0.0273194
        k(   18) = (   0.0000000   0.7000000   0.0000000), wk =   0.0294094
        k(   19) = (   0.0000000   0.8000000   0.0000000), wk =   0.0314995
        k(   20) = (   0.0000000   0.9000000   0.0000000), wk =   0.0335896
        k(   21) = (   0.0000000   1.0000000   0.0000000), wk =   0.0356796
        k(   22) = (   0.0000000   0.9750000   0.0750000), wk =   0.0370621
        k(   23) = (   0.0000000   0.9500000   0.1500000), wk =   0.0384445
        k(   24) = (  -0.0000000   0.9250000   0.2250000), wk =   0.0398270
        k(   25) = (  -0.0000000   0.9000000   0.3000000), wk =   0.0412094
        k(   26) = (   0.0000000   0.8750000   0.3750000), wk =   0.0425919
        k(   27) = (   0.0000000   0.8500000   0.4500000), wk =   0.0439743
        k(   28) = (   0.0000000   0.8250000   0.5250000), wk =   0.0453568
        k(   29) = (  -0.0000000   0.8000000   0.6000000), wk =   0.0467392
        k(   30) = (  -0.0000000   0.7750000   0.6750000), wk =   0.0481217
        k(   31) = (   0.0000000   0.7500000   0.7500000), wk =   0.0495041
        k(   32) = (   0.0000000   0.7250000   0.7750000), wk =   0.0500266
        k(   33) = (   0.0000000   0.7000000   0.8000000), wk =   0.0505491
        k(   34) = (   0.0000000   0.6750000   0.8250000), wk =   0.0510717
        k(   35) = (   0.0000000   0.6500000   0.8500000), wk =   0.0515942
        k(   36) = (   0.0000000   0.6250000   0.8750000), wk =   0.0521167
        k(   37) = (   0.0000000   0.6000000   0.9000000), wk =   0.0526392
        k(   38) = (   0.0000000   0.5750000   0.9250000), wk =   0.0531617
        k(   39) = (   0.0000000   0.5500000   0.9500000), wk =   0.0536842
        k(   40) = (   0.0000000   0.5250000   0.9750000), wk =   0.0542067
        k(   41) = (   0.0000000   0.5000000   1.0000000), wk =   0.0547293
        k(   42) = (   0.0000000   0.4500000   0.9000000), wk =   0.0574942
        k(   43) = (  -0.0000000   0.4000000   0.8000000), wk =   0.0602591
        k(   44) = (  -0.0000000   0.3500000   0.7000000), wk =   0.0630239
        k(   45) = (  -0.0000000   0.3000000   0.6000000), wk =   0.0657888
        k(   46) = (   0.0000000   0.2500000   0.5000000), wk =   0.0685537
        k(   47) = (   0.0000000   0.2000000   0.4000000), wk =   0.0713186
        k(   48) = (   0.0000000   0.1500000   0.3000000), wk =   0.0740835
        k(   49) = (  -0.0000000   0.1000000   0.2000000), wk =   0.0768484
        k(   50) = (  -0.0000000   0.0500000   0.1000000), wk =   0.0796133
        k(   51) = (   0.0000000   0.0000000   0.0000000), wk =   0.0823782

     Dense  grid:    12939 G-vectors     FFT dimensions: (  36,  36,  36)

     Largest allocated arrays     est. size (Mb)     dimensions
        Kohn-Sham Wavefunctions         0.60 Mb     (    1639,   24)
        NL pseudopotentials             0.55 Mb     (    1639,   22)
        Each V/rho on FFT grid          0.71 Mb     (   46656)
        Each G-vector array             0.10 Mb     (   12939)
        G-vector shells                 0.00 Mb     (     180)
     Largest temporary arrays     est. size (Mb)     dimensions
        Auxiliary wavefunctions         2.40 Mb     (    1639,   96)
        Each subspace H/S matrix        0.14 Mb     (      96,   96)
        Each <psi_i|beta_j> matrix      0.01 Mb     (      22,   24)

     Check: negative/imaginary core charge=   -0.000048    0.000000

     The potential is recalculated from file :
     ./out/Si.save/charge-density.dat

     Starting wfc are   32 randomized atomic wfcs

     Band Structure Calculation
     Davidson diagonalization with overlap

     ethr =  2.00E-11,  avg # of iterations = 16.4

     total cpu time spent up to now is       75.5 secs

     End of band structure calculation

          k = 0.5000 0.5000 0.5000 (  1622 PWs)   bands (ev):

    -6.5973  -2.7077   2.1975   2.1975   4.3855   7.4306   7.4306  10.8953
    14.1960  14.4661  14.9049  14.9049  17.1289  17.1289  22.5812  24.9063
    25.6563  25.6563  27.8614  27.8614  30.3449  30.3449  32.3263  33.1250

          k = 0.4500 0.4500 0.4500 (  1610 PWs)   bands (ev):

    -6.6669  -2.5843   2.2155   2.2155   4.4012   7.4221   7.4221  10.7754
    13.8467  14.6674  14.6674  14.9160  17.4297  17.4297  22.1262  25.3513
    25.3513  25.4033  27.8026  27.8026  30.6362  30.6362  31.3109  33.2423

          k = 0.4000 0.4000 0.4000 (  1616 PWs)   bands (ev):

    -6.8508  -2.2401   2.2690   2.2690   4.4477   7.3922   7.3922  10.4253
    13.5598  14.1957  14.1957  15.4571  18.0767  18.0767  21.3606  24.6254
    24.6254  26.2257  27.7327  27.7327  30.1382  31.1244  31.1244  33.7047

          k = 0.3500 0.3500 0.3500 (  1610 PWs)   bands (ev):

    -7.0971  -1.7286   2.3566   2.3566   4.5221   7.3288   7.3288   9.8907
    13.4305  13.7422  13.7422  15.8354  18.7558  18.7558  20.8045  23.8155
    23.8155  26.5031  27.7199  27.7199  29.6371  31.3685  31.3685  34.6109

          k = 0.3000 0.3000 0.3000 (  1615 PWs)   bands (ev):

    -7.3606  -1.0986   2.4757   2.4757   4.6185   7.2174   7.2174   9.2414
    13.3819  13.4095  13.4095  15.9298  19.2051  19.2051  20.6827  23.2308
    23.2308  25.8451  27.7787  27.7787  30.0600  31.3868  31.3868  35.6253

          k = 0.2500 0.2500 0.2500 (  1618 PWs)   bands (ev):

    -7.6114  -0.3851   2.6217   2.6217   4.7260   7.0501   7.0501   8.5357
    13.2394  13.2394  13.2989  15.8264  19.1607  19.1607  20.9759  23.1329
    23.1329  24.8577  27.9384  27.9384  30.6555  31.3112  31.3112  35.9279

          k = 0.2000 0.2000 0.2000 (  1606 PWs)   bands (ev):

    -7.8316   0.3863   2.7866   2.7866   4.8240   6.8341   6.8341   7.8159
    13.0780  13.2402  13.2402  15.7737  18.6533  18.6533  21.4253  23.4535
    23.4535  23.9764  28.2422  28.2422  30.9285  31.2168  31.2168  36.2964

          k = 0.1500 0.1500 0.1500 (  1600 PWs)   bands (ev):

    -8.0107   1.1933   2.9575   2.9575   4.8685   6.5947   6.5947   7.1292
    12.7272  13.3929  13.3929  15.8975  17.9533  17.9533  21.5754  23.5955
    23.8797  23.8797  28.7154  28.7154  30.8122  31.1474  31.1474  36.0949

          k = 0.1000 0.1000 0.1000 (  1606 PWs)   bands (ev):

    -8.1421   2.0104   3.1141   3.1141   4.7690   6.3708   6.3708   6.5640
    12.3621  13.6510  13.6510  16.1426  17.2581  17.2581  21.1947  23.8777
    24.2174  24.2174  29.2985  29.2985  30.4689  31.1456  31.1456  35.9467

          k = 0.0500 0.0500 0.0500 (  1630 PWs)   bands (ev):

    -8.2224   2.7896   3.2283   3.2283   4.4237   6.2084   6.2084   6.2385
    12.0968  13.9253  13.9253  16.3850  16.7110  16.7110  20.7511  24.2965
    24.4143  24.4143  29.7888  29.7888  30.1176  31.2514  31.2514  35.8562

          k = 0.0000 0.0000 0.0000 (  1639 PWs)   bands (ev):

    -8.2493   3.2708   3.2708   3.2708   4.0721   6.1484   6.1484   6.1484
    12.0007  14.0553  14.0553  16.4889  16.4889  16.4889  20.5694  24.4773
    24.4773  24.4773  29.9674  29.9674  29.9674  31.3499  31.3499  35.8257

          k = 0.0000 0.1000 0.0000 (  1627 PWs)   bands (ev):

    -8.2134   2.7612   3.1482   3.1482   4.5599   6.0875   6.3095   6.3095
    12.1291  13.6836  14.0993  16.5671  16.5671  16.7633  20.8141  24.2873
    24.2873  24.4491  29.8065  29.9409  29.9409  30.8061  31.5798  36.0535

          k = 0.0000 0.2000 0.0000 (  1599 PWs)   bands (ev):

    -8.1062   1.9864   2.8466   2.8466   5.2557   5.9243   6.7254   6.7254
    12.4870  12.9369  14.2309  16.7992  16.7992  17.2874  21.4199  23.7605
    23.7605  24.4486  29.5422  29.6260  29.8942  29.8942  32.0208  36.5481

          k = 0.0000 0.3000 0.0000 (  1607 PWs)   bands (ev):

    -7.9299   1.1908   2.4732   2.4732   5.7030   5.8712   7.2863   7.2863
    12.1888  13.0339  14.4482  17.1753  17.1753  17.8433  21.9696  23.0028
    23.0028  24.7814  28.2682  29.3677  29.8686  29.8686  32.3856  36.7007

          k = 0.0000 0.4000 0.0000 (  1607 PWs)   bands (ev):

    -7.6878   0.4037   2.0951   2.0951   5.4697   6.3008   7.9196   7.9196
    11.6731  13.6659  14.7477  17.6699  17.6699  18.4292  22.0864  22.1437
    22.1437  25.7034  26.8983  29.3367  29.8560  29.8560  32.4769  36.0982

          k = 0.0000 0.5000 0.0000 (  1612 PWs)   bands (ev):

    -7.3862  -0.3624   1.7472   1.7472   5.2598   6.4565   8.5826   8.5826
    11.5049  14.3018  15.1230  18.2091  18.2091  19.0676  21.3377  21.3377
    21.9823  25.5807  26.8364  29.4818  29.7926  29.7926  32.1926  34.9319

          k = 0.0000 0.6000 0.0000 (  1620 PWs)   bands (ev):

    -7.0352  -1.0954   1.4477   1.4477   5.0981   6.3409   9.2428   9.2428
    11.6974  14.8177  15.5626  18.5555  18.5555  19.7626  20.8753  20.8753
    21.9967  24.3525  27.5097  29.5568  29.5568  29.6604  31.9496  33.6385

          k = 0.0000 0.7000 0.0000 (  1632 PWs)   bands (ev):

    -6.6528  -1.7761   1.2070   1.2070   5.0013   6.0625   9.8653   9.8653
    12.1419  15.0814  16.0443  18.3582  18.3582  20.5253  21.1384  21.1384
    22.3348  23.2489  27.3599  29.0133  29.0133  29.1417  32.4257  32.7919

          k = 0.0000 0.8000 0.0000 (  1624 PWs)   bands (ev):

    -6.2732  -2.3695   1.0315   1.0315   4.9798   5.7400  10.4008  10.4008
    12.7062  15.0350  16.5236  17.8639  17.8639  21.4044  21.8858  21.8858
    22.3214  23.0077  26.5405  28.1732  28.1811  28.1811  31.8373  33.4132

          k = 0.0000 0.9000 0.0000 (  1608 PWs)   bands (ev):

    -5.9647  -2.8066   0.9249   0.9249   5.0367   5.4510  10.7781  10.7781
    13.2679  14.7602  16.9116  17.4489  17.4489  21.6631  22.3969  22.6754
    22.6754  23.8161  25.4581  27.1400  27.3230  27.3230  31.5522  33.3755

          k = 0.0000 1.0000 0.0000 (  1604 PWs)   bands (ev):

    -5.8384  -2.9758   0.8891   0.8891   5.1227   5.2838  10.9168  10.9168
    13.5756  14.5416  17.0693  17.2908  17.2908  21.4151  23.0530  23.0530
    23.0842  24.1356  24.9044  26.5560  26.9157  26.9157  31.4822  33.3857

          k = 0.0000 0.9750 0.0750 (  1618 PWs)   bands (ev):

    -5.8443  -2.9570   0.8457   0.8570   5.2054   5.3888  10.8249  10.8590
    13.4923  14.4952  16.6917  17.3672  17.7643  21.5131  22.6252  22.9612
    23.2527  24.2077  25.1215  26.0442  27.0519  27.6314  31.0854  33.0413

          k = 0.0000 0.9500 0.1500 (  1622 PWs)   bands (ev):

    -5.8601  -2.9052   0.7258   0.7791   5.4509   5.6771  10.5255  10.7042
    13.3126  14.3539  16.3596  17.5575  18.3512  21.7815  22.0914  22.6648
    23.3022  24.3606  25.5546  25.7017  27.4245  28.6011  30.2928  32.5265

          k =-0.0000 0.9250 0.2250 (  1622 PWs)   bands (ev):

    -5.8820  -2.8335   0.5567   0.6958   5.8383   6.0971  10.0146  10.4789
    13.1246  14.1538  16.1549  17.7894  18.8785  21.5485  22.0834  22.4147
    23.3911  24.4405  25.4700  26.2647  27.9268  29.0761  29.9086  32.2255

          k =-0.0000 0.9000 0.3000 (  1623 PWs)   bands (ev):

    -5.9051  -2.7605   0.3699   0.6484   6.3335   6.5916   9.3639  10.1999
    12.9197  13.9811  16.0298  18.0087  19.2767  21.1804  21.7652  22.7664
    23.5568  24.4930  25.5242  26.8760  28.2382  28.5634  30.4990  32.4828

          k = 0.0000 0.8750 0.3750 (  1614 PWs)   bands (ev):

    -5.9246  -2.7050   0.1917   0.6667   6.8997   7.0632   8.7154   9.8816
    12.6631  13.8988  15.9268  18.1899  19.5201  21.0272  21.3902  23.0875
    23.7354  24.6585  25.7233  26.8830  28.1655  28.8170  30.9207  32.7405

          k = 0.0000 0.8500 0.4500 (  1612 PWs)   bands (ev):

    -5.9370  -2.6794   0.0409   0.7614   7.1626   7.5090   8.4378   9.5462
    12.3737  13.8988  15.8046  18.3406  19.6732  20.9258  21.1794  23.3012
    23.7871  24.8783  26.0047  26.3573  28.5686  29.0393  31.4237  32.1527

          k = 0.0000 0.8250 0.5250 (  1611 PWs)   bands (ev):

    -5.9398  -2.6851  -0.0700   0.9192   6.6920   8.0729   8.7422   9.2663
    12.0963  13.9534  15.6487  18.5029  19.8281  20.5999  21.2804  23.4163
    23.7562  24.9335  25.6924  26.6998  28.5447  29.4072  31.6992  32.0930

          k =-0.0000 0.8000 0.6000 (  1614 PWs)   bands (ev):

    -5.9321  -2.7142  -0.1330   1.0992   6.1241   8.3233   9.0844   9.3592
    11.8767  14.0613  15.4685  18.7157  19.9964  20.2292  21.4256  23.2512
    23.8315  24.8595  25.5303  27.1496  28.2403  29.5124  31.5860  32.4802

          k =-0.0000 0.7750 0.6750 (  1621 PWs)   bands (ev):

    -5.9142  -2.7552  -0.1441   1.2342   5.6881   8.0943   9.5034   9.6783
    11.7750  14.2489  15.2785  18.9665  19.8320  20.1501  21.5925  22.9095
    23.9776  24.8939  25.4284  27.2122  28.1419  29.1578  31.6121  32.2161

          k = 0.0000 0.7500 0.7500 (  1624 PWs)   bands (ev):

    -5.8878  -2.7972  -0.1017   1.2462   5.4934   7.7487   9.8438   9.8543
    11.8682  14.5135  15.1100  19.0672  19.5383  20.2942  21.8121  22.6418
    24.0672  25.0338  25.1526  26.9730  28.3567  28.6663  31.3451  32.1247

          k = 0.0000 0.7250 0.7750 (  1616 PWs)   bands (ev):

    -5.8859  -2.7971  -0.0980   1.2247   5.5302   7.7502   9.7826   9.8668
    11.8923  14.4914  15.1417  18.9972  19.6039  20.3007  21.8168  22.6646
    24.0425  25.0248  25.1402  27.0031  28.2715  28.7441  31.3609  32.1239

          k = 0.0000 0.7000 0.8000 (  1621 PWs)   bands (ev):

    -5.8805  -2.7970  -0.0869   1.1630   5.6374   7.7546   9.6749   9.8338
    11.9605  14.4345  15.2252  18.8523  19.7277  20.3315  21.8313  22.7275
    23.9690  24.9830  25.1297  27.0773  28.1278  28.8636  31.4110  32.1213

          k = 0.0000 0.6750 0.8250 (  1620 PWs)   bands (ev):

    -5.8717  -2.7970  -0.0686   1.0687   5.8075   7.7613   9.5352   9.7550
    12.0629  14.3585  15.3399  18.6922  19.8293  20.4149  21.8559  22.8149
    23.8506  24.9081  25.1482  27.1522  28.0087  28.9423  31.5026  32.1190

          k = 0.0000 0.6500 0.8500 (  1616 PWs)   bands (ev):

    -5.8601  -2.7974  -0.0433   0.9522   6.0298   7.7691   9.3737   9.6388
    12.1869  14.2734  15.4684  18.5372  19.8821  20.5670  21.8901  22.9029
    23.6968  24.8332  25.1912  27.1676  27.9552  28.9575  31.6442  32.1281

          k = 0.0000 0.6250 0.8750 (  1616 PWs)   bands (ev):

    -5.8464  -2.7986  -0.0113   0.8241   6.2931   7.7761   9.1989   9.4959
    12.3203  14.1851  15.5969  18.3969  19.9034  20.7707  21.9322  22.9591
    23.5248  24.7879  25.2545  27.0857  27.9714  28.9227  31.8362  32.1657

          k = 0.0000 0.6000 0.9000 (  1613 PWs)   bands (ev):

    -5.8318  -2.8006   0.0268   0.6941   6.5858   7.7794   9.0182   9.3382
    12.4514  14.0988  15.7132  18.2776  19.9166  21.0028  21.9795  22.9459
    23.3612  24.7930  25.3365  26.9204  28.0067  28.8810  32.0572  32.2479

          k = 0.0000 0.5750 0.9250 (  1615 PWs)   bands (ev):

    -5.8174  -2.8036   0.0701   0.5711   6.8951   7.7745   8.8383   9.1794
    12.5689  14.0209  15.8072  18.1842  19.9335  21.2470  22.0288  22.8412
    23.2305  24.8525  25.4364  26.6986  28.0141  28.8733  32.2336  32.4211

          k = 0.0000 0.5500 0.9500 (  1615 PWs)   bands (ev):

    -5.8048  -2.8073   0.1161   0.4635   7.2033   7.7554   8.6688   9.0357
    12.6612  13.9593  15.8725  18.1199  19.9557  21.4857  22.0796  22.6730
    23.1286  24.9475  25.5539  26.4464  27.9919  28.9009  32.3352  32.6779

          k = 0.0000 0.5250 0.9750 (  1615 PWs)   bands (ev):

    -5.7958  -2.8106   0.1582   0.3824   7.4766   7.7150   8.5306   8.9276
    12.7186  13.9215  15.9077  18.0842  19.9776  21.6794  22.1491  22.4850
    23.0522  25.0392  25.6828  26.2042  27.9648  28.9356  32.3951  32.9385

          k = 0.0000 0.5000 1.0000 (  1628 PWs)   bands (ev):

    -5.7924  -2.8122   0.1775   0.3497   7.6294   7.6614   8.4724   8.8826
    12.7369  13.9098  15.9175  18.0735  19.9879  21.7531  22.2661  22.3217
    23.0214  25.0800  25.7616  26.0778  27.9530  28.9507  32.4134  33.0878

          k = 0.0000 0.4500 0.9000 (  1616 PWs)   bands (ev):

    -5.8595  -2.7541   0.0825   0.5833   7.3279   7.5079   8.4756   9.3501
    12.5418  13.9436  15.8524  18.2114  19.8093  21.2673  21.5410  23.0594
    23.4687  24.9122  25.7771  26.3219  28.2508  28.9523  31.8546  32.3189

          k =-0.0000 0.4000 0.8000 (  1616 PWs)   bands (ev):

    -6.0767  -2.5378   0.1312   0.9325   7.0378   7.1104   8.4157   9.8718
    12.4850  13.7304  15.8549  18.3613  19.3955  20.5867  20.7788  23.2471
    24.1020  24.9005  26.3866  26.6647  28.5689  29.1645  30.6976  32.5089

          k =-0.0000 0.3500 0.7000 (  1618 PWs)   bands (ev):

    -6.4153  -2.1422   0.3513   1.3152   6.7401   6.7770   8.4205   9.6975
    12.8096  13.4822  15.7409  18.1942  19.2432  19.8307  20.3766  22.5543
    24.5247  25.4793  26.4872  27.5277  28.6098  29.8536  30.5362  33.0155

          k =-0.0000 0.3000 0.6000 (  1609 PWs)   bands (ev):

    -6.8104  -1.5887   0.7053   1.7058   6.4470   6.5238   8.4664   9.1297
    12.5180  13.9002  15.2915  17.8875  19.2281  19.3661  20.2599  21.8003
    24.7496  25.6650  26.2166  28.4977  29.3167  30.2653  30.7574  32.2117

          k = 0.0000 0.2500 0.5000 (  1610 PWs)   bands (ev):

    -7.2048  -0.9066   1.1577   2.0838   6.2375   6.2616   8.4167   8.5033
    12.1389  14.0683  14.7120  17.5196  18.7842  19.6226  20.2099  21.6199
    24.1011  26.1239  26.5772  28.1226  29.6900  30.4277  31.4408  33.1825

          k = 0.0000 0.2000 0.4000 (  1613 PWs)   bands (ev):

    -7.5604  -0.1196   1.6740   2.4349   5.9643   6.1171   7.8018   8.2135
    12.0423  13.7452  14.2676  17.1137  18.0580  19.6348  20.6370  22.0435
    23.6283  25.8967  27.0301  27.8315  29.9768  30.6602  32.0682  34.6870

          k = 0.0000 0.1500 0.3000 (  1607 PWs)   bands (ev):

    -7.8538   0.7516   2.2145   2.7491   5.6170   6.0741   7.1970   7.6481
    12.3495  13.1761  14.0455  16.7818  17.3830  18.7929  21.5500  22.7183
    23.4995  24.8303  28.0192  28.3931  30.1473  30.6407  32.1004  36.1327

          k =-0.0000 0.1000 0.2000 (  1600 PWs)   bands (ev):

    -8.0711   1.6824   2.7239   3.0133   5.1847   6.0899   6.6762   6.9331
    12.5870  12.9725  13.9973  16.5768  16.8846  17.8094  21.5090  23.5178
    23.7838  24.4402  28.9502  29.2339  30.1786  30.5441  31.8013  36.5298

          k =-0.0000 0.0500 0.1000 (  1623 PWs)   bands (ev):

    -8.2044   2.6241   3.1161   3.2007   4.5997   6.1287   6.2955   6.3578
    12.1597  13.6762  14.0312  16.4985  16.5872  16.9196  20.8674  24.2215
    24.2615  24.4462  29.6422  29.8869  30.0487  30.8854  31.4998  36.0589

          k = 0.0000 0.0000 0.0000 (  1639 PWs)   bands (ev):

    -8.2493   3.2708   3.2708   3.2708   4.0721   6.1484   6.1484   6.1484
    12.0007  14.0553  14.0553  16.4889  16.4889  16.4889  20.5694  24.4773
    24.4773  24.4773  29.9674  29.9674  29.9674  31.3499  31.3499  35.8257

     Writing output data file Si.save

     init_run     :      0.44s CPU      0.49s WALL (       1 calls)
     electrons    :     65.50s CPU     72.71s WALL (       1 calls)

     Called by init_run:
     wfcinit      :      0.00s CPU      0.00s WALL (       1 calls)
     potinit      :      0.06s CPU      0.07s WALL (       1 calls)

     Called by electrons:
     c_bands      :     65.50s CPU     72.71s WALL (       1 calls)
     v_of_rho     :      0.05s CPU      0.06s WALL (       1 calls)

     Called by c_bands:
     init_us_2    :      0.11s CPU      0.12s WALL (      51 calls)
     cegterg      :     58.70s CPU     65.09s WALL (      51 calls)

     Called by *egterg:
     h_psi        :     44.78s CPU     49.70s WALL (     936 calls)
     g_psi        :      0.12s CPU      0.15s WALL (     834 calls)
     cdiaghg      :      4.13s CPU      4.69s WALL (     885 calls)

     Called by h_psi:
     add_vuspsi   :      1.29s CPU      1.42s WALL (     936 calls)

     General routines
     calbec       :      1.43s CPU      1.59s WALL (     936 calls)
     fft          :      0.03s CPU      0.03s WALL (      11 calls)
     fftw         :     39.62s CPU     43.99s WALL (   27306 calls)
     davcio       :      0.00s CPU      0.01s WALL (      51 calls)

     Parallel routines
     fft_scatter  :      1.03s CPU      1.11s WALL (   27317 calls)

     PWSCF        :  1m 7.90s CPU     1m15.67s WALL


   This run was terminated on:  11:50:23  26Mar2023            

=------------------------------------------------------------------------------=
   JOB DONE.
=------------------------------------------------------------------------------=
