
     Program PWSCF v.5.1 starts on 13Feb2023 at 21:47:10 

     This program is part of the open-source Quantum ESPRESSO suite
     for quantum simulation of materials; please cite
         "P. Giannozzi et al., J. Phys.:Condens. Matter 21 395502 (2009);
          URL http://www.quantum-espresso.org", 
     in publications or presentations arising from this work. More details at
     http://www.quantum-espresso.org/quote

     Parallel version (MPI), running on     1 processors
     Waiting for input...
     Reading input from standard input

     Current dimensions of program PWSCF are:
     Max number of different atomic species (ntypx) = 10
     Max number of k-points (npk) =  40000
     Max angular momentum in pseudopotentials (lmaxx) =  3

     Atomic positions and unit cell read from directory:
     ./out/Si.save/

               file Si.pbe-mt_fhi.UPF: wavefunction(s)  4f renormalized

     Subspace diagonalization in iterative solution of the eigenvalue problem:
     a serial algorithm will be used


     G-vector sticks info
     --------------------
     sticks:   dense  smooth     PW     G-vecs:    dense   smooth      PW
     Sum         733     733    211                12939    12939    2109



     bravais-lattice index     =            2
     lattice parameter (alat)  =      10.2623  a.u.
     unit-cell volume          =     270.1967 (a.u.)^3
     number of atoms/cell      =            2
     number of atomic types    =            1
     number of electrons       =       108.00
     number of Kohn-Sham states=           54
     kinetic-energy cutoff     =      50.0000  Ry
     charge density cutoff     =     200.0000  Ry
     Exchange-correlation      = PBE ( 1  4  3  4 0)

     celldm(1)=  10.262347  celldm(2)=   0.000000  celldm(3)=   0.000000
     celldm(4)=   0.000000  celldm(5)=   0.000000  celldm(6)=   0.000000

     crystal axes: (cart. coord. in units of alat)
               a(1) = (  -0.500000   0.000000   0.500000 )  
               a(2) = (   0.000000   0.500000   0.500000 )  
               a(3) = (  -0.500000   0.500000   0.000000 )  

     reciprocal axes: (cart. coord. in units 2 pi/alat)
               b(1) = ( -1.000000 -1.000000  1.000000 )  
               b(2) = (  1.000000  1.000000  1.000000 )  
               b(3) = ( -1.000000  1.000000 -1.000000 )  


     PseudoPot. # 1 for Si read from file:
     /home/acedemo/psudo/Si.pbe-mt_fhi.UPF
     MD5 check sum: 259057c2adf9952f9ced37ae3d9e311d
     Pseudo is Norm-conserving, Zval =  4.0
     Generated using FHI98PP, converted with fhi2upf.x v.5.0.2
     Using radial grid of  495 points,  3 beta functions with: 
                l(1) =   0
                l(2) =   1
                l(3) =   3

     atomic species   valence    mass     pseudopotential
        Si             4.00    28.08550     Si( 1.00)

     48 Sym. Ops., with inversion, found (24 have fractional translation)



   Cartesian axes

     site n.     atom                  positions (alat units)
         1           Si  tau(   1) = (   0.0000000   0.0000000   0.0000000  )
         2           Si  tau(   2) = (   0.2500000   0.2500000   0.2500000  )

     number of k points=    51  Marzari-Vanderbilt smearing, width (Ry)=  0.0500
                       cart. coord. in units 2pi/alat
        k(    1) = (   0.5000000   0.5000000   0.5000000), wk =   0.0000000
        k(    2) = (   0.4500000   0.4500000   0.4500000), wk =   0.0014779
        k(    3) = (   0.4000000   0.4000000   0.4000000), wk =   0.0029558
        k(    4) = (   0.3500000   0.3500000   0.3500000), wk =   0.0044337
        k(    5) = (   0.3000000   0.3000000   0.3000000), wk =   0.0059116
        k(    6) = (   0.2500000   0.2500000   0.2500000), wk =   0.0073895
        k(    7) = (   0.2000000   0.2000000   0.2000000), wk =   0.0088674
        k(    8) = (   0.1500000   0.1500000   0.1500000), wk =   0.0103453
        k(    9) = (   0.1000000   0.1000000   0.1000000), wk =   0.0118232
        k(   10) = (   0.0500000   0.0500000   0.0500000), wk =   0.0133011
        k(   11) = (   0.0000000   0.0000000   0.0000000), wk =   0.0147790
        k(   12) = (   0.0000000   0.1000000   0.0000000), wk =   0.0168691
        k(   13) = (   0.0000000   0.2000000   0.0000000), wk =   0.0189591
        k(   14) = (   0.0000000   0.3000000   0.0000000), wk =   0.0210492
        k(   15) = (   0.0000000   0.4000000   0.0000000), wk =   0.0231392
        k(   16) = (   0.0000000   0.5000000   0.0000000), wk =   0.0252293
        k(   17) = (   0.0000000   0.6000000   0.0000000), wk =   0.0273194
        k(   18) = (   0.0000000   0.7000000   0.0000000), wk =   0.0294094
        k(   19) = (   0.0000000   0.8000000   0.0000000), wk =   0.0314995
        k(   20) = (   0.0000000   0.9000000   0.0000000), wk =   0.0335896
        k(   21) = (   0.0000000   1.0000000   0.0000000), wk =   0.0356796
        k(   22) = (   0.0000000   0.9750000   0.0750000), wk =   0.0370621
        k(   23) = (   0.0000000   0.9500000   0.1500000), wk =   0.0384445
        k(   24) = (  -0.0000000   0.9250000   0.2250000), wk =   0.0398270
        k(   25) = (  -0.0000000   0.9000000   0.3000000), wk =   0.0412094
        k(   26) = (   0.0000000   0.8750000   0.3750000), wk =   0.0425919
        k(   27) = (   0.0000000   0.8500000   0.4500000), wk =   0.0439743
        k(   28) = (   0.0000000   0.8250000   0.5250000), wk =   0.0453568
        k(   29) = (  -0.0000000   0.8000000   0.6000000), wk =   0.0467392
        k(   30) = (  -0.0000000   0.7750000   0.6750000), wk =   0.0481217
        k(   31) = (   0.0000000   0.7500000   0.7500000), wk =   0.0495041
        k(   32) = (   0.0000000   0.7250000   0.7750000), wk =   0.0500266
        k(   33) = (   0.0000000   0.7000000   0.8000000), wk =   0.0505491
        k(   34) = (   0.0000000   0.6750000   0.8250000), wk =   0.0510717
        k(   35) = (   0.0000000   0.6500000   0.8500000), wk =   0.0515942
        k(   36) = (   0.0000000   0.6250000   0.8750000), wk =   0.0521167
        k(   37) = (   0.0000000   0.6000000   0.9000000), wk =   0.0526392
        k(   38) = (   0.0000000   0.5750000   0.9250000), wk =   0.0531617
        k(   39) = (   0.0000000   0.5500000   0.9500000), wk =   0.0536842
        k(   40) = (   0.0000000   0.5250000   0.9750000), wk =   0.0542067
        k(   41) = (   0.0000000   0.5000000   1.0000000), wk =   0.0547293
        k(   42) = (   0.0000000   0.4500000   0.9000000), wk =   0.0574942
        k(   43) = (  -0.0000000   0.4000000   0.8000000), wk =   0.0602591
        k(   44) = (  -0.0000000   0.3500000   0.7000000), wk =   0.0630239
        k(   45) = (  -0.0000000   0.3000000   0.6000000), wk =   0.0657888
        k(   46) = (   0.0000000   0.2500000   0.5000000), wk =   0.0685537
        k(   47) = (   0.0000000   0.2000000   0.4000000), wk =   0.0713186
        k(   48) = (   0.0000000   0.1500000   0.3000000), wk =   0.0740835
        k(   49) = (  -0.0000000   0.1000000   0.2000000), wk =   0.0768484
        k(   50) = (  -0.0000000   0.0500000   0.1000000), wk =   0.0796133
        k(   51) = (   0.0000000   0.0000000   0.0000000), wk =   0.0823782

     Dense  grid:    12939 G-vectors     FFT dimensions: (  36,  36,  36)

     Largest allocated arrays     est. size (Mb)     dimensions
        Kohn-Sham Wavefunctions         1.35 Mb     (    1639,   54)
        NL pseudopotentials             0.55 Mb     (    1639,   22)
        Each V/rho on FFT grid          0.71 Mb     (   46656)
        Each G-vector array             0.10 Mb     (   12939)
        G-vector shells                 0.00 Mb     (     180)
     Largest temporary arrays     est. size (Mb)     dimensions
        Auxiliary wavefunctions         5.40 Mb     (    1639,  216)
        Each subspace H/S matrix        0.71 Mb     (     216,  216)
        Each <psi_i|beta_j> matrix      0.02 Mb     (      22,   54)

     The potential is recalculated from file :
     ./out/Si.save/charge-density.dat

     Starting wfc are   32 randomized atomic wfcs +   22 random wfc

     Band Structure Calculation
     Davidson diagonalization with overlap

     ethr =  1.48E-12,  avg # of iterations = 27.7

     total cpu time spent up to now is      147.0 secs

     End of band structure calculation

          k = 0.5000 0.5000 0.5000 (  1622 PWs)   bands (ev):

   -13.1897 -12.9603  -4.1735  -4.1735  -3.4422  -3.4422  -2.3713  -1.4043
     5.5475   5.5475   6.3590   6.3590   6.9741   9.7205  15.2808  15.2808
    15.8787  16.4721  16.4739  16.4739  17.2852  18.9806  23.0957  23.0957
    25.9779  25.9779  26.1281  26.1294  26.1294  26.5561  26.5561  27.5354
    28.6379  30.5111  34.2975  34.2975  36.2390  36.7978  36.7978  38.2508
    42.9109  42.9109  44.0105  44.5733  44.5733  45.8934  45.8934  46.5360
    46.9051  46.9051  46.9545  49.4397  49.6631  49.6631

          k = 0.4500 0.4500 0.4500 (  1610 PWs)   bands (ev):

   -13.7920 -12.2857  -4.2109  -4.2109  -3.3327  -3.3327  -2.3855  -1.3297
     4.7096   4.7096   6.5970   7.2700   7.2700  10.1407  14.1064  14.1064
    14.3446  15.9991  17.7133  17.7133  18.5701  19.8055  22.9810  22.9810
    25.5158  25.5158  25.8300  26.5390  26.5390  26.8584  26.8584  27.9100
    28.4853  30.7205  34.3114  34.3114  36.2173  36.8401  36.8401  38.3167
    41.9295  41.9295  43.1757  43.6557  43.6557  46.2026  46.6790  46.6790
    47.5213  47.5213  47.5863  49.8439  49.8439  50.0534

          k = 0.4000 0.4000 0.4000 (  1616 PWs)   bands (ev):

   -14.4229 -11.4380  -4.2719  -4.2719  -3.0558  -3.0558  -2.4087  -1.1273
     3.6383   3.6383   5.8181   8.5603   8.5603  10.9738  12.5131  12.5567
    12.5567  14.8061  19.4479  19.4479  20.3210  21.4473  22.7088  22.7088
    25.0236  25.0236  25.2990  27.0830  27.0830  27.4916  27.4916  28.1821
    28.6701  31.1973  34.3538  34.3538  36.1545  36.9576  36.9576  38.5037
    39.8247  39.8247  41.7363  42.7749  42.7749  45.2443  46.6957  46.6957
    48.1926  48.1926  48.9458  51.0022  51.0022  51.1967

          k = 0.3500 0.3500 0.3500 (  1610 PWs)   bands (ev):

   -14.9830 -10.5171  -4.2986  -4.2986  -2.6705  -2.6705  -2.4093  -0.8357
     2.6213   2.6213   4.9581   9.9389   9.9389  10.2932  11.0509  11.0509
    12.4150  13.5639  21.1662  21.1662  21.8442  22.4674  22.4674  23.4383
    24.6013  24.6013  24.7727  27.7985  27.7985  27.9499  28.2164  28.2164
    29.5782  31.7392  34.4257  34.4257  36.0532  36.9904  36.9904  37.6996
    37.6996  38.7799  40.3539  41.9471  41.9471  44.2136  45.7645  45.7645
    48.1870  48.1870  49.9878  50.1046  50.1046  50.8905

          k = 0.3000 0.3000 0.3000 (  1615 PWs)   bands (ev):

   -15.4698  -9.5268  -4.2683  -4.2683  -2.3687  -2.2025  -2.2025  -0.4880
     1.6774   1.6774   4.1194   8.5097   9.5928   9.5928  11.4102  11.4102
    12.3503  13.5838  21.7606  21.7606  23.1294  23.2840  23.2840  24.2997
    24.3735  24.3735  25.4439  28.0672  28.6380  28.6380  28.9840  28.9840
    30.5857  32.1724  34.4928  34.4928  35.2073  35.2073  35.9343  37.5198
    37.5198  38.9476  39.4298  41.1717  41.1717  43.2072  44.5335  44.5335
    46.7413  46.7413  48.8694  49.3380  49.8168  49.8168

          k = 0.2500 0.2500 0.2500 (  1618 PWs)   bands (ev):

   -15.8825  -8.4701  -4.1728  -4.1728  -2.2803  -1.6702  -1.6702  -0.1198
     0.8200   0.8200   3.3436   6.7581   8.2198   8.2198  11.2145  12.9371
    12.9371  14.8452  21.5129  21.5129  23.6828  23.6828  23.8932  24.0024
    25.5506  25.5506  26.9943  29.1372  29.5422  29.5422  29.7308  29.7308
    31.6794  32.2617  33.0270  33.0270  34.7363  34.7363  35.9306  37.7778
    37.7778  38.4289  39.6514  40.4851  40.4851  42.2538  43.2608  43.2608
    45.0518  45.0518  46.9240  47.8849  48.4445  48.4445

          k = 0.2000 0.2000 0.2000 (  1606 PWs)   bands (ev):

   -16.2206  -7.3510  -4.0090  -4.0090  -2.1479  -1.1329  -1.1329   0.1057
     0.1057   0.2114   2.6605   5.1196   6.9182   6.9182  10.1687  14.5304
    14.5304  16.1368  21.2532  21.2532  23.4745  23.4745  23.5579  24.2922
    27.4312  27.4312  28.1848  29.7808  29.7808  30.5726  30.5726  31.1511
    31.7502  31.7502  31.8832  32.8546  34.9277  34.9277  36.2414  37.9811
    37.9811  38.1409  39.9206  39.9206  39.9955  41.4183  42.0836  42.0836
    43.4065  43.4065  45.0545  46.2597  47.0438  47.0438

          k = 0.1500 0.1500 0.1500 (  1600 PWs)   bands (ev):

   -16.4839  -6.1772  -3.7754  -3.7754  -1.9898  -1.0501  -1.0501  -0.0084
    -0.0084   0.3971   2.0685   3.7189   5.6922   5.6922   9.2449  16.1773
    16.1773  17.4143  21.0462  21.0462  23.2794  23.2794  23.2958  24.1469
    27.7709  27.7709  29.3074  29.9103  29.9103  31.3705  31.5470  31.5470
    32.1924  32.1924  33.4325  34.1090  35.1835  35.1835  36.8078  37.9962
    37.9962  38.1059  39.4134  39.4134  39.9390  41.0569  41.1745  41.1745
    41.9375  41.9375  43.2612  44.6962  45.1212  45.1212

          k = 0.1000 0.1000 0.1000 (  1606 PWs)   bands (ev):

   -16.6721  -4.9641  -3.4721  -3.4721  -1.8656  -1.5739  -1.5739   0.3188
     0.6261   0.6261   1.3538   2.9251   4.5463   4.5463   8.4908  17.8444
    17.8444  18.6142  20.9210  20.9210  23.1082  23.1347  23.1347  23.7628
    25.9689  25.9689  29.6391  31.7137  31.7750  31.7750  32.4841  32.4841
    33.0838  33.0838  35.4415  35.5195  35.5195  35.5720  37.3148  37.8276
    37.8276  38.2027  38.7505  38.7505  39.6091  40.1781  40.1781  41.2397
    41.3078  41.3078  41.5442  42.6984  42.6984  43.3589

          k = 0.0500 0.0500 0.0500 (  1630 PWs)   bands (ev):

   -16.7851  -3.7514  -3.1010  -3.1010  -2.1318  -2.1318  -1.9721   0.0412
     0.5706   1.4211   1.4211   2.7879   3.4989   3.4989   7.9786  19.3717
    19.3717  19.5975  20.9789  20.9789  22.9954  23.0464  23.0464  23.2888
    24.1340  24.1340  29.3337  32.7617  33.0259  33.0259  33.5970  33.5970
    33.9883  33.9883  36.0101  36.0101  36.6329  36.8512  37.6748  37.6748
    37.6800  38.1809  38.1809  38.2631  39.0236  39.0236  39.9040  40.1587
    40.1587  40.3497  41.3623  41.7590  41.7590  42.4296

          k = 0.0000 0.0000 0.0000 (  1639 PWs)   bands (ev):

   -16.8227  -2.7354  -2.7354  -2.7354  -2.5629  -2.5629  -2.5629  -0.1249
     0.2799   2.0363   2.0363   2.8028   2.8028   2.8028   7.7936  20.0288
    20.0288  20.0288  21.3941  21.3941  22.9578  22.9578  22.9578  23.0316
    23.0316  23.0316  29.1836  33.3347  33.3347  33.3347  34.1642  34.1642
    34.5027  34.5027  36.4351  36.4351  36.4351  38.1509  38.1509  38.1509
    38.2442  38.2442  38.2442  38.2913  38.2913  38.2913  38.3870  38.3870
    38.3870  41.3050  41.6835  41.9758  41.9758  41.9758

          k = 0.0000 0.1000 0.0000 (  1627 PWs)   bands (ev):

   -16.7725  -3.5626  -3.5626  -2.9812  -2.8217  -1.6469  -1.6469  -0.0358
     0.6291   0.9785   2.0869   2.8586   2.8586   3.9850   8.0552  19.1569
    19.1569  20.0765  20.0877  20.9385  23.0426  23.0426  23.2418  23.9457
    23.9457  24.3469  29.3793  32.5507  32.5507  33.1002  33.2358  33.4728
    33.9776  34.3268  35.9209  35.9209  36.3305  36.8591  36.8591  37.7819
    37.7819  38.5766  38.6798  38.8210  39.0786  39.0786  39.1267  40.4608
    40.4608  40.5417  41.3094  41.3229  41.3229  43.0548

          k = 0.0000 0.2000 0.0000 (  1599 PWs)   bands (ev):

   -16.6219  -4.3779  -4.3779  -3.5119  -3.3770  -1.1547  -0.5689  -0.5689
     1.2303   1.4548   2.2386   3.0293   3.0293   5.2078   8.9169  17.6381
    17.6381  18.3107  19.9692  20.2195  23.1739  23.1739  23.5232  25.7000
    25.7000  26.3619  29.7563  30.6335  30.6335  31.0649  31.6823  33.1058
    33.5313  33.9298  34.9951  34.9951  35.9024  36.0848  36.0848  37.5001
    37.5001  39.2523  39.3112  39.3187  39.4376  39.9318  39.9318  40.4866
    40.4866  40.7734  41.4012  43.4887  43.4887  44.4869

          k = 0.0000 0.3000 0.0000 (  1607 PWs)   bands (ev):

   -16.3710  -5.1003  -5.1003  -4.0987  -3.9879  -2.7218   0.5758   0.5758
     2.1627   2.4914   2.5137   3.3291   3.3291   6.0892  10.3983  16.0697
    16.0697  16.5809  18.8172  20.4576  23.3899  23.3899  23.6015  27.3523
    27.3523  28.4351  28.6231  28.6231  28.8238  29.3280  30.5924  32.9955
    33.1521  33.5369  34.1773  34.1773  35.3341  35.3958  35.3958  36.7144
    36.7144  38.3149  38.6944  40.3468  40.4276  40.4276  40.4845  41.4538
    41.4538  42.0761  42.2311  46.2046  46.2046  46.4668

          k = 0.0000 0.4000 0.0000 (  1607 PWs)   bands (ev):

   -16.0201  -5.7278  -5.7278  -4.6544  -4.5631  -4.2634   1.7454   1.7454
     2.8453   3.2398   3.7094   3.7968   3.7968   6.7991  12.2989  14.5524
    14.5524  14.9352  17.6045  20.7899  23.2645  23.6802  23.6802  25.6781
    25.6781  26.5611  28.1408  29.9780  29.9780  30.1116  30.3056  32.4665
    33.3457  33.3457  33.4662  33.5129  34.7427  34.7810  34.7810  35.7854
    35.7854  37.6528  37.8871  41.2470  41.2470  41.5628  41.7249  42.7307
    42.7307  43.0401  43.4032  47.4466  48.8146  48.8146

          k = 0.0000 0.5000 0.0000 (  1612 PWs)   bands (ev):

   -15.5695  -6.2594  -6.2594  -5.7449  -5.1378  -5.0698   2.8433   2.8433
     3.3003   4.3796   4.5265   4.5265   4.9997   7.5169  13.1130  13.1130
    13.3824  14.4358  16.3935  21.2135  22.2884  23.2029  23.2029  24.1770
    24.1770  24.3428  27.5216  29.3626  31.2334  31.9882  32.0242  32.0242
    32.4472  32.4472  33.6785  34.1582  34.2581  34.2581  34.4893  35.0886
    35.0886  36.5713  38.3021  42.2608  42.2608  42.7723  42.9201  43.1166
    44.1305  44.1305  44.6954  45.8889  51.2007  51.2007

          k = 0.0000 0.6000 0.0000 (  1620 PWs)   bands (ev):

   -15.0196  -7.1411  -6.6948  -6.6948  -5.5470  -5.4943   3.7633   3.7633
     3.8563   5.5289   5.6196   5.6196   6.3501   8.3425  11.7641  11.7641
    11.9260  15.2300  16.7174  20.8031  20.9178  20.9178  21.6665  22.2644
    24.6084  24.6084  27.4950  28.4599  31.2571  31.3792  31.3792  31.5811
    33.4033  33.5565  33.5612  33.5612  33.8921  33.8921  35.2332  35.2332
    35.5972  36.5795  39.4603  40.5137  43.3642  43.3642  44.3921  44.6406
    45.6382  45.6382  46.0626  46.4882  53.0802  53.0802

          k = 0.0000 0.7000 0.0000 (  1632 PWs)   bands (ev):

   -14.3710  -8.4523  -7.0337  -7.0337  -5.8682  -5.8300   4.5133   4.5621
     4.5621   6.6374   7.0025   7.0025   7.7035   9.3315  10.5239  10.5239
    10.5676  14.1699  18.6669  18.6669  19.0841  19.1186  20.1059  22.4081
    25.1706  25.1706  27.3579  27.9278  30.3308  30.3308  31.0843  31.2551
    32.7984  32.8762  33.4320  33.4320  33.7258  33.7258  34.8488  37.1155
    37.1155  37.8394  39.0303  41.2896  44.4654  44.4654  45.9544  46.2871
    47.2478  47.2478  47.4761  47.6704  53.2706  53.2706

          k = 0.0000 0.8000 0.0000 (  1624 PWs)   bands (ev):

   -13.6242  -9.6740  -7.2758  -7.2758  -6.0981  -6.0732   5.2711   5.3539
     5.3539   7.6675   8.3881   8.3881   8.9109   9.3082   9.5608   9.5608
    10.4931  13.3355  16.5088  16.5088  17.4381  18.1864  21.4764  23.1805
    25.8209  25.8209  26.4108  28.2924  29.3077  29.3077  30.9222  31.0152
    31.7767  32.0935  33.2078  33.2078  33.5206  33.5206  34.3926  35.8437
    39.3417  39.3417  41.6259  43.2275  45.3767  45.3767  47.5490  48.0453
    48.8462  48.9422  48.9422  49.0177  51.9717  51.9717

          k = 0.0000 0.9000 0.0000 (  1608 PWs)   bands (ev):

   -12.7801 -10.8037  -7.4211  -7.4211  -6.2344  -6.2222   6.1297   6.1916
     6.1916   8.0640   8.0640   8.1485   8.5937   9.5680  10.5102  10.5102
    11.7544  12.9966  14.4774  14.4774  15.9735  16.5077  23.4023  24.5195
    25.4375  26.5461  26.5461  28.2630  28.3505  28.3505  30.5801  30.8217
    30.8635  31.2838  33.0698  33.0698  33.3867  33.3867  34.2103  34.7362
    41.4151  41.4151  44.2916  45.3136  45.6613  45.6613  48.6767  49.2307
    49.8646  50.3979  50.3979  50.4686  50.7315  51.2085

          k = 0.0000 1.0000 0.0000 (  1604 PWs)   bands (ev):

   -11.8395 -11.8395  -7.4696  -7.4696  -6.2760  -6.2760   6.9798   6.9798
     7.0889   7.0889   7.2341   7.2341   9.3336   9.3336  11.8241  11.8241
    12.7948  12.7948  13.0152  13.0152  15.4606  15.4606  24.4798  24.4798
    26.6708  26.6708  27.1549  27.1549  27.6631  27.6631  30.6000  30.6000
    30.7998  30.7998  33.0236  33.0236  33.3414  33.3414  34.2922  34.2922
    42.5278  42.5278  45.3624  45.3624  46.9298  46.9298  47.4413  47.4413
    50.4075  50.4075  51.0396  51.0396  52.0006  52.0006

          k = 0.0000 0.9750 0.0750 (  1618 PWs)   bands (ev):

   -12.0560 -11.5619  -7.7882  -7.7880  -5.9003  -5.8975   5.7389   6.2103
     6.9004   7.3395   7.6779   8.1250   9.4761   9.8001  11.3719  11.4047
    12.8751  12.9924  13.0971  13.4945  15.5991  15.7899  23.7605  24.2217
    25.9490  26.4908  27.1432  27.2796  27.9565  28.3900  29.8790  29.8986
    30.7339  30.9656  33.0748  33.0766  33.5316  33.5460  35.2846  35.3376
    42.2097  42.3270  45.0083  45.0628  46.5025  47.0811  47.5465  47.9356
    49.7521  50.0277  50.2864  50.3359  51.3951  51.6137

          k = 0.0000 0.9500 0.1500 (  1622 PWs)   bands (ev):

   -12.2112 -11.2238  -8.3363  -8.3358  -5.1789  -5.1726   4.2994   5.2413
     6.7304   7.6216   7.8468   8.6235   9.6844  10.5498  10.9595  11.0700
    12.8953  13.1805  13.4493  14.3408  16.1691  16.5132  22.5312  23.4229
    25.2148  25.3870  26.5578  27.4901  28.3695  28.6409  28.8067  29.7264
    30.9613  31.1812  33.1854  33.4839  34.3193  34.3767  37.1142  37.1368
    41.2033  41.8644  44.4325  44.4799  45.7274  46.9018  47.2050  47.8035
    48.3602  49.4690  49.5857  50.1665  50.6087  50.8250

          k =-0.0000 0.9250 0.2250 (  1622 PWs)   bands (ev):

   -12.3048 -10.8262  -8.8819  -8.8813  -4.3459  -4.3336   2.8595   4.2671
     6.5981   7.8090   7.9438   8.7172   9.1912  10.2123  11.6564  11.6941
    13.1770  13.4485  13.8840  15.2742  17.0712  17.4713  21.1756  22.4873
    24.1226  24.5367  25.4682  26.2751  27.0668  28.7421  29.6905  30.6864
    31.1189  31.5767  33.8207  34.6732  35.1572  35.2685  39.0795  39.1563
    39.8663  41.2001  43.2893  43.7086  44.9359  45.4333  46.9486  47.1020
    47.5987  48.9020  49.0970  50.3073  50.4243  50.6863

          k =-0.0000 0.9000 0.3000 (  1623 PWs)   bands (ev):

   -12.3370 -10.3735  -9.3853  -9.3787  -3.4498  -3.4236   1.4584   3.3262
     6.4779   7.7075   7.9627   8.3562   8.8823  10.2495  12.0687  12.2468
    13.8145  14.1073  14.3623  16.3950  18.1713  18.5134  19.8204  21.5129
    22.8428  23.8105  24.0823  24.7795  26.1789  28.9709  29.9527  31.0581
    31.6726  32.9641  34.6506  36.0211  36.1316  36.2118  38.5631  40.1811
    40.6360  41.2496  41.8565  42.7894  44.3612  44.3854  46.2050  46.4122
    46.9692  48.3632  48.8556  50.5370  50.6309  50.9679

          k = 0.0000 0.8750 0.3750 (  1614 PWs)   bands (ev):

   -12.3078  -9.9650  -9.8352  -9.7194  -2.5346  -2.4593   0.1426   2.4374
     6.3062   7.1017   7.8465   7.9744   9.1634  10.5989  12.2164  12.5661
    14.5043  14.8076  15.2818  17.6178  18.4247  19.3658  19.5767  20.4814
    21.6714  22.2752  23.4906  23.5346  25.5625  28.9007  29.7075  31.6713
    32.7916  34.1611  35.2409  36.8560  37.0746  37.4478  38.0948  39.0754
    39.1783  41.6219  42.7022  43.3453  43.9013  44.0703  45.4140  45.9499
    46.4636  47.6300  49.0212  50.7493  51.0208  51.2585

          k = 0.0000 0.8500 0.4500 (  1612 PWs)   bands (ev):

   -12.2175 -10.2556 -10.2273  -9.2461  -1.9487  -1.4625  -0.7370   1.6235
     5.9718   6.3510   7.5133   8.0707   9.6334  11.0727  12.3249  12.7837
    15.1102  15.3523  16.6162  17.1519  18.4041  19.2691  20.1331  20.5565
    20.8096  20.9673  22.9253  23.2727  25.1647  28.6703  29.3959  32.3640
    34.0266  34.0558  35.7678  36.3866  37.3903  37.9432  38.0847  39.0141
    39.5988  41.0269  42.5120  43.0412  44.2775  44.5912  45.3393  45.6350
    46.9878  47.1880  48.8652  49.9488  50.5022  51.2282

          k = 0.0000 0.8250 0.5250 (  1611 PWs)   bands (ev):

   -12.0670 -10.5838 -10.5592  -8.6219  -2.7634  -0.5330  -0.1082   0.9811
     5.4561   5.6165   7.4430   8.2232  10.1713  11.6087  12.4371  12.9956
    15.5879  15.8766  15.9337  17.7940  18.0870  18.4142  18.9093  20.1299
    20.6607  22.2883  23.4158  23.4337  25.1350  28.3869  29.1056  32.2267
    33.8669  34.6730  34.7741  35.2382  37.5669  38.8378  39.0364  40.0463
    40.3017  41.1853  42.1340  42.6695  43.7409  44.3306  44.7975  45.8905
    46.7712  47.5726  48.8452  49.9541  50.2222  51.3346

          k =-0.0000 0.8000 0.6000 (  1614 PWs)   bands (ev):

   -11.8582 -10.8568 -10.8277  -7.9471  -3.9058  -0.3296   0.9548   1.1591
     4.8738   4.9383   7.5525   8.4278  10.7343  12.1647  12.5499  13.2210
    14.7359  15.7129  16.4053  16.5115  17.4913  18.0122  19.5259  19.5439
    20.5210  23.5044  23.8651  24.7846  25.7404  28.0767  28.8483  31.1691
    32.5595  32.8898  35.0301  36.2482  38.3650  39.1911  39.8532  40.3655
    40.3940  42.0570  42.4194  42.5555  42.7313  44.2903  44.5971  45.8384
    45.8538  46.5901  49.0532  50.6398  51.0171  51.2097

          k =-0.0000 0.7750 0.6750 (  1621 PWs)   bands (ev):

   -11.5996 -11.0705 -11.0241  -7.2614  -4.9885  -0.8544   2.0576   2.1191
     4.3389   4.3685   7.7761   8.6796  11.2401  12.5218  12.7593  13.3584
    13.7982  14.7675  15.7900  15.9924  17.3208  17.7945  19.1588  19.9012
    21.3823  23.4323  25.2032  26.5842  26.7248  27.7321  28.5832  30.1759
    30.6709  31.3220  36.0593  36.6839  38.4928  39.4643  39.5294  40.3078
    40.5151  42.0996  42.3562  42.9602  43.1258  43.9328  45.1562  45.3102
    45.6130  46.8467  48.4126  49.7349  51.1494  51.4969

          k = 0.0000 0.7500 0.7500 (  1624 PWs)   bands (ev):

   -11.3644 -11.2238 -11.0752  -6.8654  -5.6785  -1.4415   2.8723   2.9169
     4.1563   4.2040   8.0884   8.9647  11.3558  12.3371  12.8690  13.0414
    13.4941  13.8859  14.8974  15.8085  17.5239  17.8037  19.2746  19.6563
    22.6955  23.5688  25.8763  27.3416  27.5192  28.1650  28.2602  29.2056
    29.7795  30.5389  36.4265  36.7894  37.5086  38.5338  39.9221  40.4355
    40.7085  42.1007  42.5905  43.0001  43.1210  44.2865  44.4538  45.7446
    46.5014  47.9119  48.2177  48.6029  51.2075  51.6988

          k = 0.0000 0.7250 0.7750 (  1616 PWs)   bands (ev):

   -11.3582 -11.2177 -11.0691  -7.0334  -5.4997  -1.4371   2.7288   2.7728
     4.3081   4.3584   8.0972   8.9651  11.2545  12.2389  12.7648  13.0917
    13.4347  14.0489  15.0360  15.8581  17.5330  17.8080  19.2753  19.6533
    22.5077  23.7541  25.7032  27.1004  27.4654  27.7226  28.3593  29.6608
    30.0209  30.7143  36.3445  36.4186  37.7155  38.7582  39.8322  40.4039
    40.7525  41.9845  42.7313  42.8428  43.2537  43.9859  44.7910  45.7734
    46.2645  47.6555  48.1697  49.1787  51.1276  51.5030

          k = 0.0000 0.7000 0.8000 (  1621 PWs)   bands (ev):

   -11.3395 -11.1995 -11.0509  -7.3884  -5.1123  -1.4239   2.4092   2.4560
     4.6482   4.7107   8.1240   8.9656  11.0070  11.9750  12.5601  12.9527
    13.5770  14.4079  15.3652  15.9980  17.5608  17.8210  19.2757  19.6432
    22.1388  24.1105  25.2879  26.5970  26.6607  27.7578  28.5052  30.1284
    30.8187  31.1767  35.6122  36.3946  37.8338  39.3093  39.6314  40.3330
    40.7740  41.8656  42.6359  42.8947  43.3725  43.7545  45.1764  45.6199
    46.1036  46.9996  48.6068  49.8883  51.0517  51.1770

          k = 0.0000 0.6750 0.8250 (  1620 PWs)   bands (ev):

   -11.3083 -11.1692 -11.0206  -7.7956  -4.6515  -1.4025   2.0315   2.0846
     5.0569   5.1429   8.1696   8.9634  10.6963  11.6208  12.3243  12.6312
    13.9385  14.8369  15.7810  16.2072  17.6088  17.8422  19.2714  19.6232
    21.7265  24.4755  24.7730  25.7356  26.0469  27.8564  28.6259  30.6576
    31.7539  31.8080  34.8565  36.3536  37.8407  39.3982  39.7766  40.3881
    40.6477  41.8743  42.4607  42.8409  43.3545  43.8146  45.2687  45.3896
    46.3198  46.5635  48.8884  50.4568  50.9416  51.1814

          k = 0.0000 0.6500 0.8500 (  1616 PWs)   bands (ev):

   -11.2648 -11.1269 -10.9781  -8.2143  -4.1585  -1.3740   1.6393   1.7011
     5.4897   5.6106   8.2358   8.9527  10.3706  11.2325  12.0648  12.2780
    14.3705  15.2905  16.2381  16.4634  17.6799  17.8712  19.2538  19.5872
    21.3028  24.2395  24.6907  24.8036  25.6489  27.9283  28.7378  31.2647
    32.5203  32.6399  34.1904  36.2955  37.7918  39.1654  39.7695  40.4134
    40.7815  41.8554  42.4155  42.7659  43.1185  43.9987  45.1095  45.1913
    46.6430  46.6523  48.9224  50.3655  51.2483  51.5304

          k = 0.0000 0.6250 0.8750 (  1616 PWs)   bands (ev):

   -11.2087 -11.0727 -10.9236  -8.6316  -3.6474  -1.3400   1.2488   1.3215
     5.9268   6.0970   8.3252   8.9231  10.0584  10.8355  11.7901  11.9282
    14.8390  15.7467  16.7172  16.7483  17.7794  17.9075  19.2093  19.5245
    20.8803  23.7366  23.8770  24.4580  25.7269  27.9773  28.8584  31.8680
    32.9592  33.2584  34.1712  36.2223  37.6921  38.9443  39.6044  40.1511
    41.0028  41.6426  42.5629  42.8362  42.8859  43.9477  45.0222  45.1366
    47.0240  47.0466  48.8140  50.0654  51.4437  51.7698

          k = 0.0000 0.6000 0.9000 (  1613 PWs)   bands (ev):

   -11.1402 -11.0070 -10.8570  -9.0423  -3.1257  -1.3039   0.8687   0.9550
     6.3539   6.5909   8.4413   8.8580   9.7839  10.4408  11.5119  11.5978
    15.3320  16.1861  17.0476  17.2046  17.9160  17.9524  19.1208  19.4160
    20.4743  22.9588  23.3051  24.0056  26.0722  28.0051  28.9990  32.0188
    32.9288  33.9760  35.0018  36.1436  37.5351  38.7375  39.4231  39.9060
    40.9267  41.3154  42.1942  43.0209  43.3264  43.6368  45.1837  45.2244
    47.4427  47.5202  48.6902  49.7729  51.1632  51.4876

          k = 0.0000 0.5750 0.9250 (  1615 PWs)   bands (ev):

   -11.0593 -10.9302 -10.7783  -9.4432  -2.6011  -1.2716   0.5071   0.6106
     6.7559   7.0772   8.5870   8.7449   9.5666  10.0545  11.2440  11.3009
    15.8432  16.5863  17.3453  17.6603  18.0309  18.0995  18.9780  19.2310
    20.1142  22.0527  22.9792  23.5681  26.4657  28.0051  29.1679  31.4681
    33.4938  34.6070  35.9530  36.0901  37.3278  38.5456  39.2498  39.7028
    40.7108  40.9608  41.7956  42.7041  43.7112  43.9999  45.2745  45.4339
    47.8789  48.0165  48.6430  49.5166  50.6479  50.9233

          k = 0.0000 0.5500 0.9500 (  1615 PWs)   bands (ev):

   -10.9659 -10.8442 -10.6876  -9.8316  -2.0882  -1.2543   0.1790   0.3011
     7.1163   7.5125   8.6185   8.7581   9.4017   9.6820  11.0066  11.0543
    16.3679  16.9257  17.6111  17.8705  18.3025  18.3255  18.8314  18.9543
    19.8340  21.1613  22.7839  23.2060  26.8575  27.9586  29.3724  30.8497
    34.1319  35.0260  36.1389  36.7060  37.2577  38.3778  39.0883  39.5452
    40.4446  40.6240  41.5152  42.1774  44.0222  44.6384  45.2388  45.6335
    48.2961  48.5101  48.7445  49.3186  50.1057  50.3277

          k = 0.0000 0.5250 0.9750 (  1615 PWs)   bands (ev):

   -10.8601 -10.7567 -10.5849 -10.1988  -1.6293  -1.2721  -0.0735   0.0475
     7.4195   7.7449   8.6453   8.9253   9.2564   9.3362  10.8349  10.8775
    16.8962  17.1891  17.7586  17.8199  18.3405  18.5882  18.8411  18.9511
    19.6410  20.2943  22.7233  22.9414  27.2301  27.8299  29.6186  30.3079
    34.7017  35.1334  36.3183  36.6044  37.9099  38.2630  38.9825  39.3930
    40.2015  40.3515  41.3881  41.7011  44.3632  44.9313  45.3156  45.7066
    48.6553  48.9564  48.9999  49.2013  49.6187  49.8047

          k = 0.0000 0.5000 1.0000 (  1628 PWs)   bands (ev):

   -10.7419 -10.7419 -10.4702 -10.4702  -1.3524  -1.3524  -0.1221  -0.1221
     7.6529   7.6529   8.9179   8.9179   9.1421   9.1421  10.7888  10.7888
    17.3039  17.3039  17.6724  17.6724  18.4028  18.4028  19.1872  19.1872
    19.6135  19.6135  22.7811  22.7811  27.5745  27.5745  29.9094  29.9094
    35.0444  35.0444  36.4385  36.4385  38.2352  38.2352  39.1635  39.1635
    40.1563  40.1563  41.4219  41.4219  44.6932  44.6932  45.6072  45.6072
    48.9804  48.9804  49.2279  49.2279  49.4332  49.4332

          k = 0.0000 0.4500 0.9000 (  1616 PWs)   bands (ev):

   -11.7881 -10.3323 -10.2861  -9.7788  -1.8159  -1.5434  -0.5038   1.1292
     6.5818   7.1682   8.0749   8.3490   9.2012  10.5255  11.5130  11.9581
    15.8013  16.0113  17.0464  17.5185  18.2763  18.9805  19.5461  20.0039
    20.5324  20.5835  22.7620  23.3548  25.7518  28.4952  29.4425  31.5320
    34.2869  34.4137  35.9476  36.8306  37.8524  37.9844  38.2646  38.9908
    39.3507  41.4234  42.2557  43.0590  43.5138  44.5801  45.5435  45.5509
    47.3408  47.8313  48.9023  49.9998  50.0123  50.7118

          k =-0.0000 0.4000 0.8000 (  1616 PWs)   bands (ev):

   -12.8331  -9.8891  -9.8647  -8.8811  -2.2379  -2.0140  -0.7002   2.8230
     5.4608   5.7611   6.9457   7.5249   9.9892  11.3281  13.4567  13.4606
    13.8965  14.1533  15.4693  17.5174  18.2884  20.4437  20.5965  20.7685
    21.7960  21.8474  22.6075  23.5090  25.4970  29.0277  29.6048  32.3830
    32.8219  34.4323  35.2964  36.5105  36.9217  37.5070  37.9261  38.5066
    39.2088  40.1209  42.3375  43.4646  43.9394  44.7879  45.3160  46.5026
    46.6682  47.0342  49.1327  49.8546  50.8794  51.3654

          k =-0.0000 0.3500 0.7000 (  1618 PWs)   bands (ev):

   -13.7623  -9.3368  -9.3190  -7.8560  -2.5912  -2.4140  -0.7356   3.7875
     4.4129   5.1250   6.0527   6.6013  10.9226  10.9446  11.7849  12.9752
    13.0796  15.7460  16.7792  17.5937  18.3703  19.6013  20.9561  22.0232
    22.4619  23.3659  23.7111  24.7869  26.8224  29.4062  29.7546  31.4682
    31.5201  34.1626  34.9297  35.9614  36.5199  37.6189  37.6523  38.1400
    38.6631  39.2690  40.7575  42.6980  42.8248  44.0014  44.2993  46.5846
    47.4129  48.7693  49.5888  49.5982  51.0240  51.0897

          k =-0.0000 0.3000 0.6000 (  1609 PWs)   bands (ev):

   -14.5710  -8.6693  -8.6538  -6.7145  -2.8548  -2.7094  -0.6319   2.8943
     3.1670   4.9383   5.7149   7.1745   9.1043   9.6392  11.3819  12.1771
    13.9046  17.0577  17.8522  17.9510  18.5508  19.2069  21.5144  23.5749
    23.9655  24.9423  25.3744  26.3765  28.4257  29.0944  29.2273  30.7928
    31.2353  32.8202  34.6340  34.7412  36.0007  36.3002  37.6604  37.8423
    38.9288  39.4086  40.6394  41.5615  41.6197  42.4480  43.1940  44.3852
    47.4238  47.8804  49.2525  49.4507  51.6247  51.6623

          k = 0.0000 0.2500 0.5000 (  1610 PWs)   bands (ev):

   -15.2572  -7.8877  -7.8724  -5.4643  -3.0156  -2.8934  -0.4059   1.8606
     2.0318   4.2511   4.8573   7.1133   7.7267   9.3308   9.8838  13.3840
    14.7466  15.0250  18.0682  18.8129  19.8109  21.7919  22.5870  25.0643
    25.5856  26.4707  27.0113  27.9163  28.1271  28.3491  30.1787  30.3706
    31.6954  32.1177  32.6806  34.3198  35.2613  35.9234  36.6500  37.7826
    37.7969  39.5057  40.0466  40.7329  41.1738  42.0972  42.2861  43.8063
    45.7999  46.5730  47.8258  47.9401  50.0933  50.9725

          k = 0.0000 0.2000 0.4000 (  1613 PWs)   bands (ev):

   -15.8198  -6.9957  -6.9795  -4.1257  -3.0577  -2.9661  -0.0764   0.8853
     1.0125   3.6546   3.9558   5.2935   6.0609   8.4456  11.5754  12.5451
    14.7215  16.2651  18.4269  19.1897  20.9576  24.4052  24.4751  25.8526
    26.3338  27.3716  27.6971  28.0005  29.0319  29.5362  29.8469  30.1280
    32.1214  32.4168  32.7040  33.4556  34.5853  35.1417  35.8494  37.4724
    37.8363  39.0183  39.1739  40.4028  40.6754  41.1271  41.3863  43.8013
    44.0852  46.1178  46.2240  46.8633  48.2257  48.5728

          k = 0.0000 0.1500 0.3000 (  1607 PWs)   bands (ev):

   -16.2582  -6.0008  -5.9832  -3.1413  -2.9329  -2.5578  -0.0108   0.0461
     0.3905   2.9004   3.0249   3.7577   4.7875   7.0528  10.5994  13.9373
    16.1608  17.5853  18.8708  19.6605  21.7220  25.0640  25.1323  26.0522
    27.0991  27.8709  28.0350  29.0079  29.3039  30.0276  30.5268  30.8382
    32.0154  32.8911  33.3440  34.1836  34.2964  35.3970  35.9656  37.1977
    37.9830  38.5528  38.5561  40.0867  40.4044  40.5264  40.6457  42.4555
    42.5480  44.0801  44.3430  45.0480  46.4668  46.9372

          k =-0.0000 0.1000 0.2000 (  1600 PWs)   bands (ev):

   -16.5717  -4.9176  -4.8994  -2.9693  -2.8108  -1.1931  -0.8417  -0.6724
     0.7448   1.8414   1.8569   3.1051   3.8913   5.6266   9.0660  16.3700
    17.6750  18.9520  19.3646  20.2157  22.3491  24.1079  24.1769  25.1674
    25.7552  27.2776  29.7279  30.1451  30.6304  31.0856  31.4560  32.5084
    32.6655  33.1389  34.3706  35.0604  35.7958  36.3182  36.3795  37.1576
    37.8328  38.3329  38.3837  39.6663  39.7206  40.0713  40.2209  41.3640
    41.5055  42.0246  42.2637  43.4236  44.0072  44.7299

          k =-0.0000 0.0500 0.1000 (  1623 PWs)   bands (ev):

   -16.7600  -3.7784  -3.7638  -2.8131  -2.6486  -1.6764  -1.6599   0.0373
     0.7308   0.9116   1.7380   2.8732   3.2001   4.0975   8.1106  18.7406
    19.1640  19.8197  20.2994  20.8458  22.8218  23.3220  23.3831  23.8388
    23.9597  24.8176  29.4243  32.4185  32.4832  32.9885  33.0521  33.4286
    33.7314  34.0587  35.5826  35.9290  36.5294  36.8754  36.9834  37.7035
    37.7749  38.1664  38.3013  38.8972  39.0142  39.5410  39.8263  40.1677
    40.6269  40.7864  41.1329  41.7264  41.7296  42.8964

          k = 0.0000 0.0000 0.0000 (  1639 PWs)   bands (ev):

   -16.8227  -2.7354  -2.7354  -2.7354  -2.5629  -2.5629  -2.5629  -0.1249
     0.2799   2.0363   2.0363   2.8028   2.8028   2.8028   7.7936  20.0288
    20.0288  20.0288  21.3941  21.3941  22.9578  22.9578  22.9578  23.0316
    23.0316  23.0316  29.1836  33.3347  33.3347  33.3347  34.1642  34.1642
    34.5027  34.5027  36.4351  36.4351  36.4351  38.1509  38.1509  38.1509
    38.2442  38.2442  38.2442  38.2913  38.2913  38.2913  38.3870  38.3870
    38.3870  41.3050  41.6835  41.9758  41.9758  41.9758

     Writing output data file Si.save

     init_run     :      0.12s CPU      0.12s WALL (       1 calls)
     electrons    :    143.83s CPU    145.84s WALL (       1 calls)

     Called by init_run:
     wfcinit      :      0.00s CPU      0.00s WALL (       1 calls)
     potinit      :      0.04s CPU      0.04s WALL (       1 calls)

     Called by electrons:
     c_bands      :    143.83s CPU    145.83s WALL (       1 calls)
     v_of_rho     :      0.03s CPU      0.03s WALL (       1 calls)

     Called by c_bands:
     init_us_2    :      0.05s CPU      0.07s WALL (      51 calls)
     cegterg      :    137.26s CPU    139.06s WALL (      99 calls)

     Called by *egterg:
     h_psi        :     69.86s CPU     70.78s WALL (    1563 calls)
     g_psi        :      0.19s CPU      0.20s WALL (    1413 calls)
     cdiaghg      :     17.88s CPU     18.06s WALL (    1464 calls)

     Called by h_psi:
     add_vuspsi   :      1.92s CPU      1.94s WALL (    1563 calls)

     General routines
     calbec       :      2.15s CPU      2.17s WALL (    1563 calls)
     fft          :      0.01s CPU      0.01s WALL (      10 calls)
     fftw         :     62.35s CPU     63.20s WALL (   76780 calls)
     davcio       :      0.00s CPU      0.02s WALL (      51 calls)

     Parallel routines
     fft_scatter  :      1.48s CPU      1.48s WALL (   76790 calls)

     PWSCF        :  2m24.92s CPU     2m27.12s WALL


   This run was terminated on:  21:49:37  13Feb2023            

=------------------------------------------------------------------------------=
   JOB DONE.
=------------------------------------------------------------------------------=
