
     Program PWSCF v.5.1 starts on 13Feb2023 at 21:25:46 

     This program is part of the open-source Quantum ESPRESSO suite
     for quantum simulation of materials; please cite
         "P. Giannozzi et al., J. Phys.:Condens. Matter 21 395502 (2009);
          URL http://www.quantum-espresso.org", 
     in publications or presentations arising from this work. More details at
     http://www.quantum-espresso.org/quote

     Parallel version (MPI), running on     1 processors
     Waiting for input...
     Reading input from standard input

     Current dimensions of program PWSCF are:
     Max number of different atomic species (ntypx) = 10
     Max number of k-points (npk) =  40000
     Max angular momentum in pseudopotentials (lmaxx) =  3

     Atomic positions and unit cell read from directory:
     ./out/Si.save/

               file Si.pbe-mt_fhi.UPF: wavefunction(s)  4f renormalized

     Subspace diagonalization in iterative solution of the eigenvalue problem:
     a serial algorithm will be used


     G-vector sticks info
     --------------------
     sticks:   dense  smooth     PW     G-vecs:    dense   smooth      PW
     Sum         733     733    223                12939    12939    2229



     bravais-lattice index     =            2
     lattice parameter (alat)  =      10.2623  a.u.
     unit-cell volume          =     270.1967 (a.u.)^3
     number of atoms/cell      =            2
     number of atomic types    =            1
     number of electrons       =       108.00
     number of Kohn-Sham states=           54
     kinetic-energy cutoff     =      50.0000  Ry
     charge density cutoff     =     200.0000  Ry
     Exchange-correlation      = PBE ( 1  4  3  4 0)

     celldm(1)=  10.262347  celldm(2)=   0.000000  celldm(3)=   0.000000
     celldm(4)=   0.000000  celldm(5)=   0.000000  celldm(6)=   0.000000

     crystal axes: (cart. coord. in units of alat)
               a(1) = (  -0.500000   0.000000   0.500000 )  
               a(2) = (   0.000000   0.500000   0.500000 )  
               a(3) = (  -0.500000   0.500000   0.000000 )  

     reciprocal axes: (cart. coord. in units 2 pi/alat)
               b(1) = ( -1.000000 -1.000000  1.000000 )  
               b(2) = (  1.000000  1.000000  1.000000 )  
               b(3) = ( -1.000000  1.000000 -1.000000 )  


     PseudoPot. # 1 for Si read from file:
     /home/acedemo/psudo/Si.pbe-mt_fhi.UPF
     MD5 check sum: 259057c2adf9952f9ced37ae3d9e311d
     Pseudo is Norm-conserving, Zval =  4.0
     Generated using FHI98PP, converted with fhi2upf.x v.5.0.2
     Using radial grid of  495 points,  3 beta functions with: 
                l(1) =   0
                l(2) =   1
                l(3) =   3

     atomic species   valence    mass     pseudopotential
        Si             4.00    28.08550     Si( 1.00)

     48 Sym. Ops., with inversion, found (24 have fractional translation)



   Cartesian axes

     site n.     atom                  positions (alat units)
         1           Si  tau(   1) = (   0.0000000   0.0000000   0.0000000  )
         2           Si  tau(   2) = (   0.2500000   0.2500000   0.2500000  )

     number of k points=    72 (tetrahedron method)
                       cart. coord. in units 2pi/alat
        k(    1) = (   0.0000000   0.0000000   0.0000000), wk =   0.0011574
        k(    2) = (  -0.0833333   0.0833333  -0.0833333), wk =   0.0092593
        k(    3) = (  -0.1666667   0.1666667  -0.1666667), wk =   0.0092593
        k(    4) = (  -0.2500000   0.2500000  -0.2500000), wk =   0.0092593
        k(    5) = (  -0.3333333   0.3333333  -0.3333333), wk =   0.0092593
        k(    6) = (  -0.4166667   0.4166667  -0.4166667), wk =   0.0092593
        k(    7) = (   0.5000000  -0.5000000   0.5000000), wk =   0.0046296
        k(    8) = (   0.0000000   0.1666667   0.0000000), wk =   0.0069444
        k(    9) = (  -0.0833333   0.2500000  -0.0833333), wk =   0.0277778
        k(   10) = (  -0.1666667   0.3333333  -0.1666667), wk =   0.0277778
        k(   11) = (  -0.2500000   0.4166667  -0.2500000), wk =   0.0277778
        k(   12) = (  -0.3333333   0.5000000  -0.3333333), wk =   0.0277778
        k(   13) = (   0.5833333  -0.4166667   0.5833333), wk =   0.0277778
        k(   14) = (   0.5000000  -0.3333333   0.5000000), wk =   0.0277778
        k(   15) = (   0.4166667  -0.2500000   0.4166667), wk =   0.0277778
        k(   16) = (   0.3333333  -0.1666667   0.3333333), wk =   0.0277778
        k(   17) = (   0.2500000  -0.0833333   0.2500000), wk =   0.0277778
        k(   18) = (   0.1666667  -0.0000000   0.1666667), wk =   0.0138889
        k(   19) = (   0.0000000   0.3333333   0.0000000), wk =   0.0069444
        k(   20) = (  -0.0833333   0.4166667  -0.0833333), wk =   0.0277778
        k(   21) = (  -0.1666667   0.5000000  -0.1666667), wk =   0.0277778
        k(   22) = (  -0.2500000   0.5833333  -0.2500000), wk =   0.0277778
        k(   23) = (   0.6666667  -0.3333333   0.6666667), wk =   0.0277778
        k(   24) = (   0.5833333  -0.2500000   0.5833333), wk =   0.0277778
        k(   25) = (   0.5000000  -0.1666667   0.5000000), wk =   0.0277778
        k(   26) = (   0.4166667  -0.0833333   0.4166667), wk =   0.0277778
        k(   27) = (   0.3333333   0.0000000   0.3333333), wk =   0.0138889
        k(   28) = (   0.0000000   0.5000000   0.0000000), wk =   0.0069444
        k(   29) = (  -0.0833333   0.5833333  -0.0833333), wk =   0.0277778
        k(   30) = (  -0.1666667   0.6666667  -0.1666667), wk =   0.0277778
        k(   31) = (   0.7500000  -0.2500000   0.7500000), wk =   0.0277778
        k(   32) = (   0.6666667  -0.1666667   0.6666667), wk =   0.0277778
        k(   33) = (   0.5833333  -0.0833333   0.5833333), wk =   0.0277778
        k(   34) = (   0.5000000   0.0000000   0.5000000), wk =   0.0138889
        k(   35) = (   0.0000000   0.6666667   0.0000000), wk =   0.0069444
        k(   36) = (  -0.0833333   0.7500000  -0.0833333), wk =   0.0277778
        k(   37) = (   0.8333333  -0.1666667   0.8333333), wk =   0.0277778
        k(   38) = (   0.7500000  -0.0833333   0.7500000), wk =   0.0277778
        k(   39) = (   0.6666667   0.0000000   0.6666667), wk =   0.0138889
        k(   40) = (   0.0000000   0.8333333   0.0000000), wk =   0.0069444
        k(   41) = (   0.9166667  -0.0833333   0.9166667), wk =   0.0277778
        k(   42) = (   0.8333333   0.0000000   0.8333333), wk =   0.0138889
        k(   43) = (   0.0000000  -1.0000000   0.0000000), wk =   0.0034722
        k(   44) = (  -0.1666667   0.3333333   0.0000000), wk =   0.0277778
        k(   45) = (  -0.2500000   0.4166667  -0.0833333), wk =   0.0555556
        k(   46) = (  -0.3333333   0.5000000  -0.1666667), wk =   0.0555556
        k(   47) = (   0.5833333  -0.4166667   0.7500000), wk =   0.0555556
        k(   48) = (   0.5000000  -0.3333333   0.6666667), wk =   0.0277778
        k(   49) = (  -0.1666667   0.5000000   0.0000000), wk =   0.0277778
        k(   50) = (  -0.2500000   0.5833333  -0.0833333), wk =   0.0555556
        k(   51) = (   0.6666667  -0.3333333   0.8333333), wk =   0.0555556
        k(   52) = (   0.5833333  -0.2500000   0.7500000), wk =   0.0555556
        k(   53) = (   0.5000000  -0.1666667   0.6666667), wk =   0.0555556
        k(   54) = (   0.4166667  -0.0833333   0.5833333), wk =   0.0555556
        k(   55) = (   0.3333333   0.0000000   0.5000000), wk =   0.0277778
        k(   56) = (  -0.1666667   0.6666667  -0.0000000), wk =   0.0277778
        k(   57) = (   0.7500000  -0.2500000   0.9166667), wk =   0.0555556
        k(   58) = (   0.6666667  -0.1666667   0.8333333), wk =   0.0555556
        k(   59) = (   0.5833333  -0.0833333   0.7500000), wk =   0.0555556
        k(   60) = (   0.5000000   0.0000000   0.6666667), wk =   0.0277778
        k(   61) = (   0.8333333  -0.1666667   1.0000000), wk =   0.0277778
        k(   62) = (   0.7500000  -0.0833333   0.9166667), wk =   0.0555556
        k(   63) = (   0.6666667   0.0000000   0.8333333), wk =   0.0277778
        k(   64) = (  -0.1666667  -1.0000000   0.0000000), wk =   0.0138889
        k(   65) = (   0.6666667  -0.3333333   1.0000000), wk =   0.0277778
        k(   66) = (   0.5833333  -0.2500000   0.9166667), wk =   0.0555556
        k(   67) = (   0.5000000  -0.1666667   0.8333333), wk =   0.0277778
        k(   68) = (   0.6666667  -0.1666667   1.0000000), wk =   0.0277778
        k(   69) = (   0.5833333  -0.0833333   0.9166667), wk =   0.0555556
        k(   70) = (   0.5000000   0.0000000   0.8333333), wk =   0.0277778
        k(   71) = (  -0.3333333  -1.0000000   0.0000000), wk =   0.0138889
        k(   72) = (  -0.5000000  -1.0000000   0.0000000), wk =   0.0069444

     Dense  grid:    12939 G-vectors     FFT dimensions: (  36,  36,  36)

     Largest allocated arrays     est. size (Mb)     dimensions
        Kohn-Sham Wavefunctions         1.35 Mb     (    1639,   54)
        NL pseudopotentials             0.55 Mb     (    1639,   22)
        Each V/rho on FFT grid          0.71 Mb     (   46656)
        Each G-vector array             0.10 Mb     (   12939)
        G-vector shells                 0.00 Mb     (     180)
     Largest temporary arrays     est. size (Mb)     dimensions
        Auxiliary wavefunctions         5.40 Mb     (    1639,  216)
        Each subspace H/S matrix        0.71 Mb     (     216,  216)
        Each <psi_i|beta_j> matrix      0.02 Mb     (      22,   54)

     The potential is recalculated from file :
     ./out/Si.save/charge-density.dat

     Starting wfc are   32 randomized atomic wfcs +   22 random wfc

     Band Structure Calculation
     Davidson diagonalization with overlap

     ethr =  1.48E-12,  avg # of iterations = 27.5

     Warning: ef = 53.464742 is above the highest band at k-point   1
              e  =  41.975831

     Warning: ef = 53.464742 is above the highest band at k-point   2
              e  =  42.992782

     Warning: ef = 53.464742 is above the highest band at k-point   3
              e  =  45.894382

     Warning: ef = 53.464742 is above the highest band at k-point   4
              e  =  48.444542

     Warning: ef = 53.464742 is above the highest band at k-point   5
              e  =  50.208440

     Warning: ef = 53.464742 is above the highest band at k-point   6
              e  =  50.817539

     Warning: ef = 53.464742 is above the highest band at k-point   7
              e  =  49.663134

     Warning: ef = 53.464742 is above the highest band at k-point   8
              e  =  43.952696

     Warning: ef = 53.464742 is above the highest band at k-point   9
              e  =  45.584388

     Warning: ef = 53.464742 is above the highest band at k-point  10
              e  =  48.117130

     Warning: ef = 53.464742 is above the highest band at k-point  11
              e  =  50.340668

     Warning: ef = 53.464742 is above the highest band at k-point  12
              e  =  51.355163

     Warning: ef = 53.464742 is above the highest band at k-point  13
              e  =  51.079904

     Warning: ef = 53.464742 is above the highest band at k-point  14
              e  =  51.156438

     Warning: ef = 53.464742 is above the highest band at k-point  15
              e  =  50.661394

     Warning: ef = 53.464742 is above the highest band at k-point  16
              e  =  49.708023

     Warning: ef = 53.464742 is above the highest band at k-point  17
              e  =  47.312232

     Warning: ef = 53.464742 is above the highest band at k-point  18
              e  =  44.467489

     Warning: ef = 53.464742 is above the highest band at k-point  19
              e  =  47.200092

     Warning: ef = 53.464742 is above the highest band at k-point  20
              e  =  49.350056

     Warning: ef = 53.464742 is above the highest band at k-point  21
              e  =  51.055843

     Warning: ef = 53.464742 is above the highest band at k-point  22
              e  =  51.309435

     Warning: ef = 53.464742 is above the highest band at k-point  23
              e  =  51.542616

     Warning: ef = 53.464742 is above the highest band at k-point  24
              e  =  50.809200

     Warning: ef = 53.464742 is above the highest band at k-point  25
              e  =  50.964871

     Warning: ef = 53.464742 is above the highest band at k-point  26
              e  =  49.199445

     Warning: ef = 53.464742 is above the highest band at k-point  27
              e  =  49.510695

     Warning: ef = 53.464742 is above the highest band at k-point  28
              e  =  51.200667

     Warning: ef = 53.464742 is above the highest band at k-point  29
              e  =  52.850658

     Warning: ef = 53.464742 is above the highest band at k-point  30
              e  =  52.356152

     Warning: ef = 53.464742 is above the highest band at k-point  31
              e  =  52.340567

     Warning: ef = 53.464742 is above the highest band at k-point  32
              e  =  50.706177

     Warning: ef = 53.464742 is above the highest band at k-point  33
              e  =  50.015338

     Warning: ef = 53.464742 is above the highest band at k-point  34
              e  =  49.699346

     Warning: ef = 53.464742 is above the highest band at k-point  36
              e  =  52.263839

     Warning: ef = 53.464742 is above the highest band at k-point  37
              e  =  51.577763

     Warning: ef = 53.464742 is above the highest band at k-point  38
              e  =  50.614446

     Warning: ef = 53.464742 is above the highest band at k-point  39
              e  =  52.246734

     Warning: ef = 53.464742 is above the highest band at k-point  40
              e  =  51.544941

     Warning: ef = 53.464742 is above the highest band at k-point  41
              e  =  51.297737

     Warning: ef = 53.464742 is above the highest band at k-point  42
              e  =  50.632141

     Warning: ef = 53.464742 is above the highest band at k-point  43
              e  =  52.000648

     Warning: ef = 53.464742 is above the highest band at k-point  44
              e  =  47.828207

     Warning: ef = 53.464742 is above the highest band at k-point  45
              e  =  49.138043

     Warning: ef = 53.464742 is above the highest band at k-point  46
              e  =  51.113447

     Warning: ef = 53.464742 is above the highest band at k-point  47
              e  =  50.626149

     Warning: ef = 53.464742 is above the highest band at k-point  48
              e  =  50.788279

     Warning: ef = 53.464742 is above the highest band at k-point  49
              e  =  50.766578

     Warning: ef = 53.464742 is above the highest band at k-point  50
              e  =  52.302798

     Warning: ef = 53.464742 is above the highest band at k-point  51
              e  =  51.641719

     Warning: ef = 53.464742 is above the highest band at k-point  52
              e  =  49.922265

     Warning: ef = 53.464742 is above the highest band at k-point  53
              e  =  50.241733

     Warning: ef = 53.464742 is above the highest band at k-point  54
              e  =  50.228255

     Warning: ef = 53.464742 is above the highest band at k-point  55
              e  =  50.606801

     Warning: ef = 53.464742 is above the highest band at k-point  56
              e  =  52.526081

     Warning: ef = 53.464742 is above the highest band at k-point  57
              e  =  52.853123

     Warning: ef = 53.464742 is above the highest band at k-point  58
              e  =  50.751521

     Warning: ef = 53.464742 is above the highest band at k-point  59
              e  =  51.466032

     Warning: ef = 53.464742 is above the highest band at k-point  60
              e  =  49.471179

     Warning: ef = 53.464742 is above the highest band at k-point  61
              e  =  51.863514

     Warning: ef = 53.464742 is above the highest band at k-point  62
              e  =  50.918807

     Warning: ef = 53.464742 is above the highest band at k-point  63
              e  =  51.281827

     Warning: ef = 53.464742 is above the highest band at k-point  64
              e  =  50.863126

     Warning: ef = 53.464742 is above the highest band at k-point  65
              e  =  51.395997

     Warning: ef = 53.464742 is above the highest band at k-point  66
              e  =  50.231776

     Warning: ef = 53.464742 is above the highest band at k-point  67
              e  =  50.823013

     Warning: ef = 53.464742 is above the highest band at k-point  68
              e  =  51.804348

     Warning: ef = 53.464742 is above the highest band at k-point  69
              e  =  50.985203

     Warning: ef = 53.464742 is above the highest band at k-point  70
              e  =  51.281143

     Warning: ef = 53.464742 is above the highest band at k-point  71
              e  =  50.112979

     Warning: ef = 53.464742 is above the highest band at k-point  72
              e  =  49.433187

     total cpu time spent up to now is      256.2 secs

     End of band structure calculation

          k = 0.0000 0.0000 0.0000 (  1639 PWs)   bands (ev):

   -16.8227  -2.7354  -2.7354  -2.7354  -2.5629  -2.5629  -2.5629  -0.1249
     0.2799   2.0363   2.0363   2.8028   2.8028   2.8028   7.7936  20.0288
    20.0288  20.0288  21.3941  21.3941  22.9578  22.9578  22.9578  23.0316
    23.0316  23.0316  29.1836  33.3347  33.3347  33.3347  34.1642  34.1642
    34.5027  34.5027  36.4351  36.4351  36.4351  38.1509  38.1509  38.1509
    38.2442  38.2442  38.2442  38.2913  38.2913  38.2913  38.3870  38.3870
    38.3870  41.3050  41.6835  41.9758  41.9758  41.9758

          k =-0.0833 0.0833-0.0833 (  1612 PWs)   bands (ev):

   -16.7181  -4.5565  -3.3556  -3.3556  -1.8585  -1.7642  -1.7642   0.2381
     0.8831   0.8831   1.0669   2.8339   4.1842   4.1842   8.2889  18.3872
    18.3872  18.9771  20.9084  20.9084  23.0622  23.0989  23.0989  23.6051
    25.3408  25.3408  29.5482  32.0518  32.3417  32.3417  32.8052  32.8052
    33.3920  33.3920  35.6600  35.6600  35.9028  36.1407  37.4002  37.7608
    37.7608  38.2318  38.5208  38.5208  39.6931  39.7739  39.7739  40.9889
    41.2312  41.2312  41.3042  42.0137  42.0137  42.9928

          k =-0.1667 0.1667-0.1667 (  1591 PWs)   bands (ev):

   -16.4045  -6.5739  -3.8611  -3.8611  -2.0431  -0.9696  -0.9696  -0.0945
    -0.0945   0.3604   2.2618   4.1432   6.0922   6.0922   9.5368  15.6236
    15.6236  16.9931  21.1077  21.1077  23.3395  23.3395  23.3750  24.2294
    28.1272  28.1272  28.9668  29.4833  29.4833  31.2236  31.2236  31.5040
    31.9457  31.9457  32.6725  33.6821  35.0909  35.0909  36.6055  38.0169
    38.0169  38.0969  39.5911  39.5911  40.0370  41.0876  41.4408  41.4408
    42.3886  42.3886  43.8505  45.2000  45.8944  45.8944

          k =-0.2500 0.2500-0.2500 (  1618 PWs)   bands (ev):

   -15.8825  -8.4701  -4.1728  -4.1728  -2.2803  -1.6702  -1.6702  -0.1198
     0.8200   0.8200   3.3436   6.7581   8.2198   8.2198  11.2145  12.9371
    12.9371  14.8452  21.5129  21.5129  23.6828  23.6828  23.8932  24.0024
    25.5506  25.5506  26.9943  29.1372  29.5422  29.5422  29.7308  29.7308
    31.6794  32.2617  33.0270  33.0270  34.7363  34.7363  35.9306  37.7778
    37.7778  38.4289  39.6514  40.4851  40.4851  42.2538  43.2608  43.2608
    45.0518  45.0518  46.9240  47.8849  48.4445  48.4445

          k =-0.3333 0.3333-0.3333 (  1616 PWs)   bands (ev):

   -15.1535 -10.1946  -4.2954  -4.2954  -2.5228  -2.5228  -2.4009  -0.7245
     2.2981   2.2981   4.6736   9.7062  10.3786  10.3786  10.5999  10.5999
    12.7713  13.1633  21.5950  21.5950  22.3033  22.5325  22.5325  24.1241
    24.4860  24.4860  24.6082  27.9287  28.0670  28.0670  28.4694  28.4694
    29.9039  31.9057  34.4549  34.4549  36.0125  36.5726  36.5726  37.4387
    37.4387  38.8779  39.9571  41.6811  41.6811  43.8737  45.3691  45.3691
    47.7879  47.7879  49.9701  50.1760  50.1760  50.2084

          k =-0.4167 0.4167-0.4167 (  1616 PWs)   bands (ev):

   -14.2202 -11.7290  -4.2535  -4.2535  -3.1622  -3.1622  -2.4021  -1.2065
     3.9913   3.9913   6.0958   8.1181   8.1181  10.6980  13.0717  13.0717
    13.0913  15.2187  18.8598  18.8598  19.7601  20.8465  22.8084  22.8084
    25.1815  25.1815  25.4804  26.8812  26.8812  27.2659  27.2659  28.2853
    28.3953  31.0228  34.3364  34.3364  36.1799  36.9119  36.9119  38.4294
    40.5662  40.5662  42.2259  43.0582  43.0582  45.5821  46.8267  46.8267
    48.0048  48.0048  48.4864  50.6476  50.6476  50.8175

          k = 0.5000-0.5000 0.5000 (  1622 PWs)   bands (ev):

   -13.1897 -12.9603  -4.1735  -4.1735  -3.4422  -3.4422  -2.3713  -1.4043
     5.5475   5.5475   6.3590   6.3590   6.9741   9.7205  15.2808  15.2808
    15.8787  16.4721  16.4739  16.4739  17.2852  18.9806  23.0957  23.0957
    25.9779  25.9779  26.1281  26.1294  26.1294  26.5561  26.5561  27.5354
    28.6379  30.5111  34.2975  34.2975  36.2390  36.7978  36.7978  38.2508
    42.9109  42.9109  44.0105  44.5733  44.5733  45.8934  45.8934  46.5360
    46.9051  46.9051  46.9545  49.4397  49.6631  49.6631

          k = 0.0000 0.1667 0.0000 (  1615 PWs)   bands (ev):

   -16.6832  -4.1163  -4.1163  -3.3212  -3.1779  -0.9369  -0.9369  -0.6601
     0.9942   1.1457   2.1768   2.9591   2.9591   4.8395   8.5562  18.1603
    18.1603  18.9019  20.1613  20.3220  23.1207  23.1207  23.4436  25.0850
    25.0850  25.6759  29.6453  31.3434  31.3434  31.7832  32.2621  33.1546
    33.6971  34.0726  35.2891  35.2891  36.0703  36.3283  36.3283  37.6389
    37.6389  39.0325  39.1458  39.2703  39.5988  39.6965  39.6965  40.3027
    40.4598  40.4598  41.3032  42.6000  42.6000  43.9527

          k =-0.0833 0.2500-0.0833 (  1599 PWs)   bands (ev):

   -16.4393  -5.8383  -4.6853  -3.7352  -2.5983  -1.8657  -0.6620  -0.0151
     1.2569   1.3938   2.3438   3.5708   4.4744   6.1800   9.7428  15.5970
    16.2159  18.7847  18.8742  20.0837  22.7401  23.3291  25.1741  25.5564
    26.6373  28.4617  28.6965  29.6028  29.7486  30.5679  30.7134  31.4485
    32.7370  32.8905  33.7100  34.4492  34.7802  36.1967  36.6511  37.5787
    37.6976  37.9959  38.7599  39.2525  39.5401  40.4846  40.9323  41.2947
    42.1820  42.6807  43.5929  44.2851  45.0041  45.5844

          k =-0.1667 0.3333-0.1667 (  1610 PWs)   bands (ev):

   -15.9868  -7.7692  -5.0561  -4.0881  -3.0477  -1.3620  -0.8735  -0.2285
     1.0245   1.5582   3.4713   5.8983   6.5168   8.0104  11.4241  12.8444
    13.7887  16.6970  19.1695  20.3556  22.6164  23.7042  25.1835  25.9231
    25.9411  27.5817  27.6970  27.7481  28.4745  29.9914  30.3725  30.6934
    31.4377  32.3781  32.8991  33.3094  34.0316  35.6800  36.2088  37.7365
    37.8325  38.4391  38.6218  39.6533  41.0991  41.2901  42.5168  43.6188
    43.9232  44.4961  45.3976  47.4659  47.7980  48.1171

          k =-0.2500 0.4167-0.2500 (  1606 PWs)   bands (ev):

   -15.3268  -9.5505  -5.2274  -4.2939  -3.9425  -1.1290  -1.0167  -0.3138
     0.7267   2.9343   4.7880   8.7758   8.7778  10.1165  10.2698  11.3997
    13.3879  14.4822  19.7180  20.7305  21.2127  23.5616  23.9711  24.3951
    24.7048  25.5862  25.7557  26.8918  27.0865  28.6900  29.3900  29.6968
    31.6540  32.4387  33.0806  34.2653  34.6979  36.3066  36.6262  37.7138
    37.7399  39.1084  39.4135  41.1995  41.6286  43.4002  43.9259  45.5243
    46.1788  46.2236  47.4009  48.7293  50.1377  50.3407

          k =-0.3333 0.5000-0.3333 (  1616 PWs)   bands (ev):

   -14.4613 -11.1486  -5.1999  -4.7900  -4.1748  -1.8815  -1.0305  -0.4775
     1.9349   4.5474   6.2163   7.8952   9.1293  11.2487  11.7068  12.4174
    12.6351  15.5508  18.2324  20.1628  20.9035  21.4142  21.5568  22.5039
    24.1403  24.4025  25.1734  26.1944  27.4797  28.0338  28.0379  29.6897
    31.1283  31.4841  32.3074  34.0232  35.7692  37.4013  37.7022  38.6632
    40.2267  40.4814  40.9640  41.3956  43.0056  44.4669  45.6681  46.4794
    47.7055  48.5179  49.0618  50.2387  50.2460  51.3552

          k = 0.5833-0.4167 0.5833 (  1615 PWs)   bands (ev):

   -13.4010 -12.5431  -5.3378  -4.9765  -3.9681  -2.4370  -1.1155  -0.6219
     3.6692   5.4848   6.6166   6.6824   7.9942  10.6093  13.8801  14.3976
    15.3466  15.8361  17.2299  18.0398  18.1200  19.8766  21.1818  22.3777
    23.5313  23.7116  26.0292  26.2535  26.8400  27.1623  28.1377  30.1754
    30.3126  31.3184  31.7434  33.5458  35.3027  37.8507  38.2785  40.5840
    41.0400  41.9114  42.4489  43.5635  44.3008  45.5176  45.8067  46.5151
    47.5704  48.2679  48.9148  49.6076  49.6159  51.0799

          k = 0.5000-0.3333 0.5000 (  1616 PWs)   bands (ev):

   -13.7733 -12.1039  -5.6999  -4.5654  -3.5596  -2.7807  -1.3511  -0.3138
     3.6288   4.5740   6.0615   7.6381   8.5363  10.7826  12.4314  14.2181
    14.9943  16.4323  17.0320  17.9672  18.9098  20.9619  21.0004  22.1679
    23.6941  24.0527  25.7999  25.9850  27.1270  27.4771  28.0319  30.0157
    30.3892  31.6772  32.0147  33.2674  35.0452  38.1209  38.6158  39.7843
    40.6112  40.8370  42.1035  44.2874  44.4515  45.5418  45.9179  46.7433
    47.2320  47.5798  48.3529  50.1590  50.1875  51.1564

          k = 0.4167-0.2500 0.4167 (  1611 PWs)   bands (ev):

   -14.7724 -10.6371  -5.8647  -3.9961  -2.9716  -2.8831  -1.4595   0.1701
     1.8592   3.1068   6.1345   8.1311   9.9097  10.7704  10.8194  12.5345
    12.7340  14.4248  19.8792  20.1386  20.3868  21.6509  22.4837  23.4276
    24.4615  24.7641  25.2374  26.0913  27.3366  28.4346  28.4422  29.4219
    31.4993  32.3255  32.6791  33.2273  35.0902  36.8850  38.0047  38.5361
    38.7335  39.3048  40.6676  41.8567  43.9474  44.9278  45.2384  45.7429
    47.1051  48.0284  48.4377  48.7027  50.3835  50.6614

          k = 0.3333-0.1667 0.3333 (  1605 PWs)   bands (ev):

   -15.5698  -8.9758  -5.8298  -3.3978  -2.6242  -2.2470  -1.3686   0.2967
     0.5104   1.9474   4.6612   7.4866   7.9258  10.1369  10.5354  12.3799
    13.2148  14.7281  19.6298  20.4498  22.7591  23.0369  24.2440  24.5480
    25.8150  25.9202  26.5609  27.1976  27.3483  29.0307  29.7328  30.0516
    32.5647  32.6068  33.1780  33.3862  33.7527  35.0036  35.7738  36.9444
    38.5877  39.0280  40.0757  41.1597  42.5466  42.9148  43.1945  44.1688
    45.4221  45.9383  47.1158  48.0251  49.2404  49.7080

          k = 0.2500-0.0833 0.2500 (  1600 PWs)   bands (ev):

   -16.1608  -7.1374  -5.5957  -2.9436  -1.9347  -1.5699  -0.9539  -0.9486
    -0.1897   2.0745   3.3141   4.8916   5.6994   7.9421  10.5593  13.1139
    15.8024  16.8235  19.1464  20.1324  22.8912  23.5184  25.5705  25.8703
    26.8190  27.4461  28.2590  28.4085  29.3670  29.4106  30.7019  31.6850
    31.7051  32.1802  32.5438  33.2092  34.1686  35.0935  35.8725  36.6987
    37.8825  38.7026  39.9633  40.5929  40.9308  41.2504  42.2994  42.8742
    42.8962  43.8094  45.0474  45.2166  46.2383  47.3122

          k = 0.1667-0.0000 0.1667 (  1592 PWs)   bands (ev):

   -16.5438  -5.1760  -5.1555  -2.5506  -2.2921  -1.2416  -1.2075  -0.4835
    -0.1563   1.9945   2.0554   3.1585   4.2031   5.9517   9.0933  15.8283
    18.1066  18.4877  19.2562  20.2434  22.8084  23.2286  25.0038  25.4030
    25.4648  27.4897  29.8001  30.3704  30.4391  30.5816  31.3922  32.3372
    32.6246  32.7201  34.0700  34.8773  35.3208  36.3226  36.4481  36.7617
    37.6222  38.5443  38.8507  39.7231  39.9655  40.0711  40.3674  42.2186
    42.2582  42.3202  42.9020  43.3025  43.7165  44.4675

          k = 0.0000 0.3333 0.0000 (  1607 PWs)   bands (ev):

   -16.2652  -5.3201  -5.3201  -4.2894  -4.1859  -3.2421   0.9662   0.9662
     2.5111   2.5982   2.8996   3.4631   3.4631   6.3341  10.9966  15.5564
    15.5564  16.0224  18.4160  20.5579  23.4799  23.4799  23.5492  27.1160
    27.1160  28.0677  28.7429  28.7429  28.9120  29.1050  30.4519  32.8156
    33.2544  33.4514  33.9073  33.9073  35.1368  35.1818  35.1818  36.3963
    36.3963  38.0979  38.3655  40.6689  40.6689  40.7342  40.8792  41.8633
    41.8633  42.4433  42.6023  47.0935  47.0935  47.2001

          k =-0.0833 0.4167-0.0833 (  1616 PWs)   bands (ev):

   -15.8824  -6.8987  -5.7565  -4.6485  -4.4556  -3.4985   1.2862   1.3625
     2.4724   2.5127   4.0428   5.0766   5.2066   7.4138  12.7204  12.9430
    13.7439  16.1537  17.9595  19.5682  22.4226  23.7886  24.5990  25.3544
    25.3900  26.6521  28.4812  29.0498  29.1677  30.0606  30.2368  31.3242
    32.4378  32.6889  33.0788  33.8433  34.2127  34.9181  36.0845  36.8871
    36.9213  37.9959  39.3615  39.4954  40.2663  40.4707  42.0472  43.0546
    44.3194  44.6361  45.6982  47.2973  47.7423  49.3501

          k =-0.1667 0.5000-0.1667 (  1611 PWs)   bands (ev):

   -15.2919  -8.7115  -5.9925  -5.4923  -4.8617  -2.1950   0.4946   1.2229
     1.8157   3.7490   5.3827   7.2380   7.9838   9.1478  10.3034  11.5212
    14.7066  16.6806  17.1249  18.4582  20.6329  23.1372  23.4877  24.3862
    24.9762  25.6012  26.8215  27.3599  28.4754  29.7421  30.0314  30.1506
    30.9076  32.7965  32.8073  34.1583  35.9472  36.2221  36.7610  37.4485
    38.1476  38.9798  39.1328  40.1181  41.0817  41.4723  42.3078  44.4613
    45.5708  45.8634  48.0951  48.9452  49.9966  51.0558

          k =-0.2500 0.5833-0.2500 (  1610 PWs)   bands (ev):

   -14.4952 -10.3664  -6.3269  -6.0278  -4.8951  -0.7566  -0.3166   1.2139
     1.2790   5.2815   6.7771   7.8702   9.3439   9.6383  11.0300  11.2772
    15.0146  16.8822  17.3461  17.3611  19.4043  21.8594  21.9828  22.9939
    23.4980  24.2490  25.1510  25.6256  27.6313  28.6949  29.6128  30.4826
    31.5225  32.1300  33.3145  35.4859  35.5438  35.8781  38.4770  38.6907
    39.5500  40.3354  40.3885  41.4228  41.5714  43.2895  43.6072  45.3700
    45.8691  47.7945  50.3436  50.8696  50.9116  51.3094

          k = 0.6667-0.3333 0.6667 (  1607 PWs)   bands (ev):

   -13.4969 -11.8304  -6.9651  -5.8626  -4.7315  -0.9446   0.1007   1.3388
     1.6409   5.4588   6.7865   7.2189   8.8793  12.2262  12.7700  13.2544
    14.4855  14.9334  18.0391  18.5411  19.4456  19.9827  20.4367  20.9015
    21.5428  22.1470  25.7793  25.9621  27.1942  27.4431  28.9369  31.1748
    31.5428  32.5281  32.9414  34.4884  34.8786  37.9921  39.2844  39.6796
    40.0889  40.9148  41.6108  43.1718  43.9533  45.0363  45.9221  45.9581
    47.2484  47.8792  48.4439  49.7599  50.7455  51.5426

          k = 0.5833-0.2500 0.5833 (  1602 PWs)   bands (ev):

   -13.1252 -12.2686  -7.4032  -5.4982  -4.3724  -1.3741  -0.0639   1.6383
     3.2105   3.4648   5.2046   9.1380   9.7513  11.3342  12.0888  14.9447
    15.4722  16.1033  17.4311  17.7746  18.5189  18.6796  20.5800  20.5954
    21.3394  22.3831  26.3047  26.3466  26.6319  27.0408  29.0724  30.9142
    31.7374  32.2715  33.4166  34.1231  34.2996  36.9143  39.8198  40.7073
    40.8601  41.8529  43.1394  43.1850  43.9293  45.0856  45.6871  45.7434
    48.6156  48.6599  48.9482  49.7755  50.0005  50.8092

          k = 0.5000-0.1667 0.5000 (  1610 PWs)   bands (ev):

   -14.1846 -10.8756  -7.6396  -4.9376  -3.8220  -1.6000  -0.2444   1.6216
     1.7970   3.4099   5.7094   8.2548   9.5834  11.2999  12.0611  13.1936
    14.6641  16.1890  17.7255  18.2254  18.2548  20.3095  21.1921  21.5198
    22.7827  24.3760  25.4114  26.2973  27.3523  28.2190  29.6584  30.3953
    31.7046  31.7312  32.9656  34.6948  34.7692  35.8819  37.3372  39.6046
    40.4435  41.5834  42.8638  43.9379  44.0624  44.1282  44.7962  46.7280
    47.1977  47.2567  47.9491  48.1774  49.1277  50.9649

          k = 0.4167-0.0833 0.4167 (  1613 PWs)   bands (ev):

   -15.0493  -9.2805  -7.6736  -4.1892  -3.0902  -1.6176  -0.2950  -0.0176
     1.0072   3.3713   6.1331   7.6787   8.0607   9.1591  12.2466  13.6459
    14.1080  14.9657  17.0682  18.4707  21.2915  21.8671  22.9332  23.4557
    24.6109  24.7300  25.7701  28.1610  28.3122  29.4201  29.9706  30.2020
    31.1376  31.6187  32.5463  33.5949  33.9968  35.9399  36.5453  37.0440
    39.9186  40.1624  42.2153  42.4609  42.5445  43.9402  44.9613  45.1203
    45.7577  46.5804  46.7623  47.9869  48.7639  49.1994

          k = 0.3333 0.0000 0.3333 (  1604 PWs)   bands (ev):

   -15.7087  -7.5139  -7.4975  -3.2916  -2.2048  -1.4799  -1.3566  -0.3191
    -0.1250   3.7289   4.2827   5.9680   6.7163  10.0001  10.4783  12.1919
    15.7150  16.4630  16.9573  18.7154  22.7845  23.6270  24.8646  24.8853
    25.5943  25.6032  28.5076  28.8217  29.2083  29.2847  29.4781  31.1336
    31.4109  31.8817  31.9331  31.9610  34.3635  34.6822  36.5484  36.6918
    38.4793  38.8312  40.3958  41.8991  42.1615  43.1023  43.4292  44.0091
    44.4873  45.0104  45.0190  46.7170  47.1566  49.5107

          k = 0.0000 0.5000 0.0000 (  1612 PWs)   bands (ev):

   -15.5695  -6.2594  -6.2594  -5.7449  -5.1378  -5.0698   2.8433   2.8433
     3.3003   4.3796   4.5265   4.5265   4.9997   7.5169  13.1130  13.1130
    13.3824  14.4358  16.3935  21.2135  22.2884  23.2029  23.2029  24.1770
    24.1770  24.3428  27.5216  29.3626  31.2334  31.9882  32.0242  32.0242
    32.4472  32.4472  33.6785  34.1582  34.2581  34.2581  34.4893  35.0886
    35.0886  36.5713  38.3021  42.2608  42.2608  42.7723  42.9201  43.1166
    44.1305  44.1305  44.6954  45.8889  51.2007  51.2007

          k =-0.0833 0.5833-0.0833 (  1617 PWs)   bands (ev):

   -15.0488  -7.7050  -6.8452  -6.5620  -5.3944  -4.2638   2.3105   3.1439
     3.8960   4.5745   6.0751   6.1078   7.2647   8.6196  10.5358  11.4750
    13.7345  15.9995  16.3908  19.7391  20.5237  21.3738  21.7914  23.2193
    24.5791  24.9518  27.5067  28.5148  29.3425  30.5696  30.7845  31.7709
    31.8047  32.8271  32.9212  34.4142  34.9520  35.2988  36.0696  36.6563
    36.8178  37.2713  39.4007  40.8738  41.6474  42.2320  42.3699  44.6055
    45.2222  46.9288  47.5137  48.0865  51.3807  52.8507

          k =-0.1667 0.6667-0.1667 (  1620 PWs)   bands (ev):

   -14.3216  -9.3904  -7.7536  -6.6634  -5.4913  -2.8150   1.4568   2.7443
     3.6911   6.1168   7.4658   7.9759   8.3965   9.4973   9.9678  10.6396
    14.3916  15.9756  17.0349  18.3708  18.7684  19.7163  20.6024  22.7160
    24.7248  25.1355  25.2453  26.2120  27.7525  29.4837  30.3709  31.0570
    31.1498  32.2860  33.5834  35.5857  36.2895  36.3824  37.8515  38.4720
    38.9645  39.2122  39.9782  40.6505  40.9339  42.5023  42.6004  45.2433
    47.4871  48.6218  50.1627  51.1507  51.9355  52.3562

          k = 0.7500-0.2500 0.7500 (  1617 PWs)   bands (ev):

   -13.3907 -10.9124  -8.4641  -6.5635  -5.3911  -1.1814   0.7662   2.2428
     3.7306   5.5898   7.0155   7.9956   9.6292  10.8111  11.9578  13.5071
    13.9152  15.1675  15.9274  17.7631  18.3303  19.1887  20.5321  21.2261
    22.9902  23.2563  24.2204  26.0651  26.7653  28.2200  29.1672  30.4313
    31.7322  33.5154  34.2966  36.0838  37.3063  37.3233  37.8336  39.1281
    39.2921  40.0768  41.5192  42.6022  43.2462  43.4967  45.1078  46.7974
    47.1089  47.5968  49.4660  49.8406  50.1570  52.3406

          k = 0.6667-0.1667 0.6667 (  1607 PWs)   bands (ev):

   -12.3606 -12.1403  -8.9733  -6.2628  -5.0936   0.2683   0.4256   2.0341
     3.5006   3.7201   5.4911   9.8832  10.5365  11.3049  13.5093  14.0501
    14.7792  15.7232  16.6397  16.7562  17.5344  18.6204  19.2322  20.1406
    21.1168  23.4258  24.0394  26.8654  26.8837  27.2318  28.6385  29.9758
    31.3645  33.5788  34.7955  35.5903  37.2517  37.4699  39.5221  39.7413
    41.1005  41.8248  41.8601  43.2518  43.9585  44.6534  44.8529  46.6406
    47.3615  47.6703  48.8963  49.0648  49.7388  50.7062

          k = 0.5833-0.0833 0.5833 (  1611 PWs)   bands (ev):

   -13.3919 -10.9088  -9.2795  -5.7626  -4.6021  -0.0300   1.0410   1.5861
     2.3632   3.6100   5.0763   8.0775  11.8062  11.9447  13.4286  13.8349
    15.3397  16.1615  16.3100  17.2988  18.0212  18.5574  18.9461  19.4246
    21.4449  24.2794  25.1012  26.0723  27.3574  28.1967  29.0639  29.7184
    31.1644  32.3548  34.6053  34.6620  37.7618  37.8217  38.0059  40.4700
    41.7267  41.7673  42.2256  43.0053  43.2323  43.9436  45.5652  46.4297
    46.8875  48.1066  48.8363  49.1844  49.6357  50.0153

          k = 0.5000 0.0000 0.5000 (  1604 PWs)   bands (ev):

   -14.3223  -9.3893  -9.3747  -5.0663  -3.9257  -0.1264  -0.1253   0.9017
     1.2384   4.9950   5.6639   6.0555  10.2370  10.7685  13.7058  14.5900
    14.7735  15.1113  16.1423  16.9491  19.5055  19.8860  20.4163  21.1780
    24.1469  25.0718  25.2848  25.3246  29.1329  29.2180  29.5083  29.8675
    30.9802  32.1570  33.1276  34.1205  34.1382  37.9943  38.3395  38.9926
    39.8186  39.9826  43.4933  43.7313  43.8939  44.5715  44.8416  44.9545
    45.9131  47.9078  48.5554  48.6378  49.5292  49.6993

          k = 0.0000 0.6667 0.0000 (  1624 PWs)   bands (ev):

   -14.5981  -8.0250  -6.9315  -6.9315  -5.7711  -5.7282   4.2831   4.3011
     4.3011   6.2752   6.5202   6.5202   7.2579   8.9819  10.9228  10.9228
    11.0094  14.5066  18.2910  19.4080  19.4080  19.6877  20.7612  22.1969
    24.9729  24.9729  27.5538  27.9365  30.6799  30.6799  31.1453  31.3543
    33.0367  33.1153  33.5185  33.5185  33.7950  33.7950  35.0670  36.4014
    36.4014  38.1920  38.6380  40.7051  44.1065  44.1065  45.4257  45.7252
    46.7004  46.7004  47.0024  47.2517  53.4675  53.4675

          k =-0.0833 0.7500-0.0833 (  1618 PWs)   bands (ev):

   -13.9408  -9.0108  -8.2360  -7.0997  -5.9135  -4.7827   3.4277   4.3828
     6.2490   6.3748   7.8332   8.0179   8.5751   9.2171   9.6745  10.3665
    11.5823  14.1818  16.6470  17.6530  18.6173  19.8587  20.3136  21.5460
    25.5377  25.5672  25.8220  28.8421  29.1028  29.5446  29.8239  30.5296
    31.1274  31.6852  34.0635  34.2448  34.9998  35.5626  36.0609  37.2915
    37.5705  38.0841  41.1704  41.9202  44.1271  44.2865  44.6974  46.9855
    47.4358  49.0115  49.7220  50.4694  51.9247  52.2638

          k = 0.8333-0.1667 0.8333 (  1619 PWs)   bands (ev):

   -13.0790  -9.8768  -9.7044  -7.0665  -5.8791  -3.1953   2.6809   3.9347
     5.9052   6.0121   7.5714   8.5216  10.0319  10.2134  11.0323  12.3643
    12.7506  13.3761  15.3989  16.1493  17.2754  19.5913  19.9154  22.3413
    23.0065  25.6245  25.8392  26.3944  27.1885  28.9791  29.4878  30.1064
    30.6100  31.6504  34.2845  35.3991  35.8669  37.1364  37.9818  39.0384
    39.3618  39.6350  41.6996  42.5860  44.0522  45.3097  45.3594  47.1825
    47.7737  48.5285  49.4225  49.7970  51.5068  51.5778

          k = 0.7500-0.0833 0.7500 (  1620 PWs)   bands (ev):

   -12.0225 -11.1860 -10.3551  -6.8318  -5.6463  -1.4121   2.1181   3.4923
     3.7364   4.8126   7.1037  10.0806  10.5475  11.9934  12.3865  13.2058
    13.2506  15.0680  15.0977  16.1363  16.6638  18.2711  19.1620  20.5462
    22.7285  23.4489  25.1666  27.1137  27.1820  28.0152  28.8342  29.2581
    30.1435  31.3250  36.1113  36.6495  37.6712  38.6417  39.0284  39.7220
    41.3749  41.4419  41.8976  42.9161  43.0990  44.7981  45.2557  46.0231
    46.6860  47.1858  48.5090  49.6835  49.9855  50.6144

          k = 0.6667 0.0000 0.6667 (  1612 PWs)   bands (ev):

   -12.3994 -10.7462 -10.7256  -6.3965  -5.2179   0.4305   1.7365   1.7677
     3.1028   3.2974   6.9718   7.9640  12.1756  13.5257  13.5675  13.6968
    15.1880  15.2016  15.3265  15.5962  16.9012  17.8653  19.9904  20.0637
    20.3269  22.0912  25.7122  26.9003  27.8092  28.1783  28.6846  29.0195
    29.9506  30.9945  36.4950  37.2427  38.7783  39.6221  39.9952  40.0775
    40.1091  41.3065  42.3307  42.3938  43.0093  44.9201  44.9784  45.4083
    46.2817  46.8495  48.2011  48.2485  51.2664  52.2467

          k = 0.0000 0.8333 0.0000 (  1628 PWs)   bands (ev):

   -13.3536 -10.0609  -7.3350  -7.3350  -6.1540  -6.1334   5.5461   5.6269
     5.6269   7.9895   8.5303   8.5303   8.9105   9.2202   9.6084   9.6084
    10.9098  13.1529  15.8146  15.8146  16.9090  17.5923  22.2221  23.5148
    26.0555  26.0555  26.0845  28.3879  28.9793  28.9793  30.8807  30.9548
    31.3377  31.8209  33.1517  33.1517  33.4665  33.4665  34.3032  35.3758
    40.0691  40.0691  42.5098  43.9113  45.5695  45.5695  48.0500  48.6512
    49.2140  49.4909  49.5101  49.5101  51.5449  51.5449

          k = 0.9167-0.0833 0.9167 (  1622 PWs)   bands (ev):

   -12.5615 -10.9155  -8.5087  -7.3687  -6.1763  -5.0446   4.7930   5.7144
     6.4096   7.1625   7.9197   8.9945   9.5362  10.0782  10.5809  10.9366
    12.4274  13.0481  14.1264  14.2424  16.0193  16.9033  22.5661  24.0570
    24.6099  26.7013  26.7196  27.7639  28.1862  28.6747  29.1979  30.2228
    30.4285  31.0325  32.8822  33.1791  34.0838  35.3542  35.3911  36.5630
    41.1727  41.3905  44.4891  44.5058  45.9189  46.2468  47.3576  48.3846
    48.6994  49.3732  49.9538  50.4905  51.1461  51.2977

          k = 0.8333 0.0000 0.8333 (  1614 PWs)   bands (ev):

   -11.5721 -11.5656  -9.9220  -7.2009  -6.0097  -3.3232   4.1389   4.1998
     5.2353   5.3866   9.3168   9.7835  10.1538  10.5942  11.4816  12.4168
    12.5744  13.3456  13.6710  15.3272  16.1229  17.4156  20.9340  21.2224
    25.5524  25.6910  25.9154  27.0321  27.3646  27.9684  28.9585  29.1218
    30.3111  30.4388  34.3858  34.7694  35.4195  36.8799  38.5886  39.5506
    41.1141  41.3175  42.8142  43.9567  45.2730  45.4884  46.7312  47.3871
    47.6696  48.6261  49.0006  49.2813  50.6244  50.6321

          k = 0.0000-1.0000 0.0000 (  1604 PWs)   bands (ev):

   -11.8395 -11.8395  -7.4696  -7.4696  -6.2760  -6.2760   6.9798   6.9798
     7.0889   7.0889   7.2341   7.2341   9.3336   9.3336  11.8241  11.8241
    12.7948  12.7948  13.0152  13.0152  15.4606  15.4606  24.4798  24.4798
    26.6708  26.6708  27.1549  27.1549  27.6631  27.6631  30.6000  30.6000
    30.7998  30.7998  33.0236  33.0236  33.3414  33.3414  34.2922  34.2922
    42.5278  42.5278  45.3624  45.3624  46.9298  46.9298  47.4413  47.4413
    50.4075  50.4075  51.0396  51.0396  52.0006  52.0006

          k =-0.1667 0.3333 0.0000 (  1603 PWs)   bands (ev):

   -16.1259  -6.3432  -6.3260  -3.3068  -2.9550  -2.9054   0.1535   0.2792
     0.4317   3.2689   3.2708   4.2034   5.1632   7.5159  11.2112  13.1398
    15.6708  17.1381  18.7150  19.4935  21.4874  25.2479  25.4777  25.8931
    26.3680  27.7633  28.2740  28.6527  28.9975  29.7688  30.2497  30.5433
    32.0777  32.9979  33.0383  33.6109  34.1526  35.2107  35.9051  37.2832
    37.9317  38.6651  38.7536  40.2721  40.5234  40.7172  40.7427  42.9243
    43.0224  44.7697  45.0483  45.6652  47.1340  47.8282

          k =-0.2500 0.4167-0.0833 (  1607 PWs)   bands (ev):

   -15.6044  -8.2061  -6.6353  -4.2526  -3.2956  -1.8037  -0.7202   0.1973
     1.4351   2.8598   4.9488   6.2696   7.1606   9.4348  10.5334  13.0589
    13.6907  16.7696  17.2482  19.7723  20.9988  23.2255  24.4956  25.2785
    25.9755  27.0934  27.2477  27.3973  28.2591  29.1062  29.7951  30.2658
    31.6231  31.8892  33.1177  33.6549  34.9737  35.2323  35.9254  37.1468
    37.7879  39.3813  39.8962  40.6421  41.4509  42.3617  42.7702  43.7068
    44.4739  46.1544  46.9079  47.7748  48.4829  49.1380

          k =-0.3333 0.5000-0.1667 (  1604 PWs)   bands (ev):

   -14.8760  -9.9241  -6.7360  -5.1355  -3.4253  -1.7290  -0.2100   0.1534
     1.6576   3.4215   6.5525   8.0907   8.4349  10.0069  11.3628  11.6585
    14.7279  15.1787  17.6489  19.2810  20.3527  21.6413  22.8708  23.2894
    24.1263  25.0207  25.9652  26.9717  27.2021  28.4180  29.3882  30.7219
    31.1324  31.8853  33.6972  34.3192  35.1539  36.2295  36.5384  37.6156
    38.4067  40.6893  41.2922  42.2801  42.9101  43.3498  44.2588  44.5461
    45.3275  47.0629  48.5901  49.1993  50.3399  51.1134

          k = 0.5833-0.4167 0.7500 (  1612 PWs)   bands (ev):

   -13.9436 -11.4556  -6.6357  -5.8326  -3.3916  -2.3125   0.2407   0.7389
     1.8580   4.7658   5.9987   8.0580   9.3232  10.8241  12.4970  13.4220
    13.9532  16.4882  17.3063  18.3370  19.6594  20.2402  21.1483  21.3734
    22.7834  23.8585  24.1634  25.8115  27.5775  28.7021  29.4034  30.5468
    30.8738  31.6646  32.8467  33.9621  36.1962  37.1422  37.6219  38.4167
    41.1692  41.8200  42.0222  43.1175  43.6455  44.2211  45.7159  46.1692
    47.1283  48.3518  48.6685  49.5283  50.0879  50.6261

          k = 0.5000-0.3333 0.6667 (  1602 PWs)   bands (ev):

   -12.9131 -12.6864  -6.3484  -6.3195  -3.3199  -2.5754   0.4494   0.5339
     3.2614   3.8309   6.8314   7.0778   9.5927  11.3535  13.0833  13.7507
    16.2803  16.6102  16.7646  16.9738  19.1587  19.5015  20.4420  20.9708
    21.8147  23.2557  24.4805  24.9123  28.1012  28.4188  29.9389  30.1263
    30.4617  31.8814  32.8650  33.2673  36.2627  36.9038  38.9020  39.4365
    41.4931  42.4423  43.3667  43.5968  43.8536  45.1371  45.3762  47.0145
    47.4922  47.8618  49.1923  49.2724  50.3481  50.7883

          k =-0.1667 0.5000 0.0000 (  1617 PWs)   bands (ev):

   -15.4306  -7.2746  -7.2599  -5.6179  -3.8899  -3.8170   0.8668   2.3335
     2.5785   4.1829   4.4662   6.2362   6.7491   8.5731  10.6541  13.2346
    14.5725  14.7412  17.7155  19.3595  20.6933  22.3581  23.1099  24.8381
    25.2740  26.1612  27.4601  28.5898  29.0177  29.4842  30.1652  31.1486
    32.0154  32.5975  32.7518  33.9782  35.0734  35.5353  35.8124  37.0925
    38.0922  38.7620  39.2969  39.4009  40.3640  42.1297  42.1436  43.4041
    45.2421  45.9128  47.2818  48.2570  49.0028  50.7666

          k =-0.2500 0.5833-0.0833 (  1611 PWs)   bands (ev):

   -14.7718  -9.0164  -7.4362  -6.5841  -4.0210  -2.4842   0.0187   2.4426
     3.1305   4.3378   6.3899   7.9023   8.2431   9.3473  10.4328  11.4601
    14.8024  16.6173  17.5116  17.9007  19.1412  20.2843  22.2095  23.6518
    24.1424  25.6142  25.9389  27.2839  27.7509  28.7122  29.9503  30.5307
    31.6258  32.7954  34.1266  34.2743  35.5053  36.2351  37.7273  38.5305
    38.8223  39.3297  39.7944  40.5124  41.0883  41.8403  43.0493  44.4031
    45.9653  47.6488  49.4944  50.0482  51.3333  52.3028

          k = 0.6667-0.3333 0.8333 (  1617 PWs)   bands (ev):

   -13.9078 -10.6050  -7.4268  -7.3327  -3.9950  -1.1591  -0.4484   2.4966
     2.7063   5.3063   6.2904   8.3361   9.2327  10.0645  12.3970  12.5809
    15.1604  15.3304  16.2814  18.6189  18.8235  19.4258  21.3378  21.9744
    22.1351  23.4835  24.9172  25.8449  26.2778  28.5266  29.3499  31.2981
    31.9830  33.4848  34.5795  35.1349  35.8136  36.4740  38.1732  38.7964
    39.2333  40.5673  41.1142  42.0055  42.4746  44.2895  45.0339  46.0489
    47.0010  47.4758  49.0615  50.1383  51.1418  51.6417

          k = 0.5833-0.2500 0.7500 (  1607 PWs)   bands (ev):

   -12.8492 -11.9954  -7.9354  -7.1623  -3.7794  -1.3647   0.8422   2.3510
     2.6003   3.7268   7.0011   7.6890  10.7081  11.7525  12.6579  13.7525
    15.2293  15.6166  16.4980  17.3118  18.4924  19.2584  20.0180  20.9709
    21.2795  22.8487  23.8684  24.8081  25.9134  28.7330  29.1167  30.9074
    32.4450  34.1260  34.3845  34.8838  36.1790  37.1608  37.7252  38.6294
    40.6538  42.1901  42.8976  43.9616  44.1977  44.6411  45.8629  46.5625
    47.4255  48.1946  48.6239  48.8031  49.5998  49.9223

          k = 0.5000-0.1667 0.6667 (  1605 PWs)   bands (ev):

   -13.2214 -11.5563  -8.3066  -6.7266  -3.3854  -1.6760   1.2481   1.6531
     3.1669   3.3678   5.3647   9.3696   9.8194  11.5125  13.2442  14.4886
    14.6387  16.1664  16.3595  17.5186  18.3552  19.2763  19.6663  20.1225
    21.7063  23.2240  24.6261  24.9413  26.1847  28.6584  28.8083  31.1564
    32.3724  33.7288  34.3074  34.5612  35.3788  37.3578  38.2709  39.2452
    40.6706  42.0729  42.2957  43.9258  44.5493  44.9957  45.7524  46.7927
    47.1904  47.3078  48.7900  49.1542  49.2621  50.2417

          k = 0.4167-0.0833 0.5833 (  1610 PWs)   bands (ev):

   -14.2186 -10.0940  -8.4758  -6.0910  -2.8540  -1.7765  -0.3007   1.4882
     2.7627   4.2480   5.7103   7.1984   9.8072  11.3672  11.8843  13.7038
    15.0184  15.5018  17.1100  17.4998  18.8087  19.5597  21.0001  22.4063
    22.6232  23.6849  25.7575  26.4312  27.1781  28.2981  29.0396  31.3882
    31.8252  33.0578  33.3577  34.4198  35.6100  35.9466  38.0364  39.2229
    39.7920  40.6364  41.7306  42.1330  43.7038  44.8598  45.5348  45.7298
    46.0998  47.9406  48.4028  48.4673  49.7743  50.2283

          k = 0.3333 0.0000 0.5000 (  1606 PWs)   bands (ev):

   -15.0145  -8.4497  -8.4347  -5.2606  -2.3977  -1.9075  -1.3347   1.3885
     1.5605   4.4374   5.2360   7.8099   8.3068   8.6790  11.4535  13.5854
    14.9994  15.2173  16.8101  18.4514  20.1484  21.2475  22.3900  23.7460
    24.4310  26.5956  26.6050  26.9439  27.7660  29.1486  29.5276  30.8875
    31.4411  32.1347  32.8104  33.2372  34.9440  36.0502  37.3244  37.9475
    38.2764  40.4459  41.0875  41.3975  42.2896  43.2286  43.9506  44.4958
    45.9131  46.5381  47.5810  48.0951  49.9577  50.6068

          k =-0.1667 0.6667-0.0000 (  1626 PWs)   bands (ev):

   -14.4598  -7.9970  -7.9331  -7.8353  -4.5148  -4.4684   1.8181   4.2121
     5.0195   5.6207   5.6545   8.3298   8.6657   8.7548   9.7872  11.0537
    12.5595  15.6882  18.1619  18.3839  18.5943  20.2725  21.0137  21.8068
    23.5978  25.9302  26.9491  28.3366  28.5124  29.2707  29.3652  30.8116
    31.6915  32.9163  34.5560  34.7385  35.2418  36.1613  36.6227  36.9005
    38.0710  38.7738  39.8750  40.2977  41.3038  42.9641  44.3999  44.4122
    47.5936  47.6300  49.3677  50.5746  52.4905  52.5261

          k = 0.7500-0.2500 0.9167 (  1621 PWs)   bands (ev):

   -13.6652  -9.5640  -8.7319  -7.9669  -4.5257  -2.9765   1.0712   4.2656
     4.9598   5.8907   6.9565   7.7442   9.1523  10.5178  11.3384  11.7740
    12.8947  14.8468  16.4598  17.0599  18.8262  20.0381  20.6446  21.2225
    23.2508  23.4954  25.2026  26.9360  27.4174  28.3371  29.0622  31.6016
    32.0051  33.1347  34.0690  35.2984  36.4219  37.1940  37.7406  38.2993
    38.9633  39.8944  40.6973  41.2484  42.5932  42.9050  45.6110  46.2828
    48.0859  48.4111  50.0227  50.4445  50.9409  52.8531

          k = 0.6667-0.1667 0.8333 (  1616 PWs)   bands (ev):

   -12.6695 -11.0149  -9.3774  -7.8000  -4.3640  -1.2928   0.5080   3.5444
     3.8801   5.2873   7.2847   8.5117  10.1830  11.5306  12.3923  13.4894
    13.7374  14.9829  15.6452  16.4473  18.0485  18.7178  19.9633  21.5373
    21.8739  22.9624  24.1922  25.1985  25.7995  27.7431  29.2889  31.5364
    32.8564  33.2909  34.5717  35.2426  37.1932  38.0058  38.9750  39.1424
    40.6725  41.1461  41.4613  42.1157  43.8117  44.6759  45.2825  46.6320
    47.3983  47.9559  48.4022  49.5020  50.1059  50.7515

          k = 0.5833-0.0833 0.7500 (  1614 PWs)   bands (ev):

   -12.3007 -11.4474  -9.8204  -7.4298  -4.0101  -0.1772   0.7297   1.7251
     3.5346   4.7304   6.2284   9.1185  10.3686  12.6373  13.6353  13.9764
    14.6983  14.9761  16.1849  16.5428  17.8813  18.5245  18.8895  19.5622
    21.7425  22.6767  23.9448  25.2847  25.8652  27.6432  29.2722  31.2362
    31.9834  33.0451  35.1479  36.2464  37.5407  38.2173  39.9716  40.1659
    40.5657  41.7176  42.4054  42.6230  43.4092  44.0957  45.4205  45.7613
    46.9609  47.1166  48.3144  49.9935  50.4251  51.4660

          k = 0.5000 0.0000 0.6667 (  1621 PWs)   bands (ev):

   -13.3568 -10.0674 -10.0516  -6.8589  -3.4763  -0.3605  -0.1940   2.3396
     3.1943   3.8789   6.0935   7.0426  11.9017  12.2490  13.1323  13.9381
    15.2226  15.4935  15.5725  17.1911  17.8328  18.9427  19.3913  20.5029
    22.0959  23.1952  23.3618  25.8857  27.0485  28.0850  29.3961  30.3365
    32.3410  33.2249  34.0263  35.5692  37.4037  37.8854  39.2607  39.3944
    40.3634  41.0724  42.1282  42.2182  42.9255  45.0243  45.6949  47.0103
    47.7392  47.8643  48.7319  48.9884  49.0208  49.4712

          k = 0.8333-0.1667 1.0000 (  1617 PWs)   bands (ev):

   -13.2161  -9.9282  -8.3396  -8.3389  -4.8921  -4.8700   3.0296   5.6532
     6.1775   6.8808   7.6144   8.2259   9.0737  10.1940  10.5026  11.2691
    11.8232  13.7178  15.1419  15.4400  18.0022  18.4980  21.3001  22.6140
    24.2174  24.4141  27.1436  27.8850  28.0669  28.2805  29.6088  30.4250
    31.3218  31.6086  33.8505  34.4535  34.7045  34.9033  37.6445  37.6880
    38.6556  40.0810  42.7939  43.4351  43.5087  45.9685  46.4485  46.5037
    48.8531  49.4745  49.5607  50.7787  50.8298  51.8635

          k = 0.7500-0.0833 0.9167 (  1620 PWs)   bands (ev):

   -12.2885 -10.6505  -9.8171  -8.2384  -4.7829  -3.2288   2.3974   3.9620
     5.6620   7.0030   8.2540   8.9396   9.5782  10.6997  11.5436  12.2765
    13.0354  13.7738  14.3732  15.7609  16.9552  18.3279  20.2263  21.6901
    23.8438  24.5871  24.9314  26.3335  26.7043  28.0769  29.1501  30.8639
    31.5935  32.2714  33.6055  34.4839  35.8166  37.6230  39.0084  39.4283
    40.5740  40.7820  42.5774  43.0792  44.5586  45.3073  46.2543  46.4746
    47.7728  48.1879  49.4676  49.6724  50.2710  50.9188

          k = 0.6667 0.0000 0.8333 (  1620 PWs)   bands (ev):

   -11.2952 -11.1565 -11.0078  -7.9348  -4.4898  -1.3937   1.9013   1.9571
     5.1997   5.2959   8.1892   8.9612  10.5877  11.4934  12.2401  12.5145
    14.0771  14.9866  15.9300  16.2884  17.6297  17.8511  19.2676  19.6133
    21.5858  24.5783  24.5944  25.4248  25.8815  27.8833  28.6631  30.8541
    32.0396  32.0638  34.6151  36.3361  37.8299  39.3198  39.8161  40.5018
    40.5769  41.8840  42.4235  42.8002  43.3007  43.8788  45.1893  45.3647
    46.4194  46.5330  48.9245  50.4999  50.9899  51.2818

          k =-0.1667-1.0000 0.0000 (  1622 PWs)   bands (ev):

   -11.7035 -11.7035  -8.4750  -8.4750  -5.0118  -5.0118   4.4905   4.4905
     7.2035   7.2035   8.2966   8.2966  10.4231  10.4231  11.0190  11.0190
    12.8723  12.8723  14.1823  14.1823  16.1940  16.1940  22.7189  22.7189
    25.4350  25.4350  26.6591  26.6591  28.1854  28.1854  29.4865  29.4865
    31.0898  31.0898  33.4130  33.4130  34.5135  34.5135  37.5500  37.5500
    41.6701  41.6701  44.3741  44.3741  46.5453  46.5453  46.9948  46.9948
    49.0371  49.0371  49.5974  49.5974  50.8631  50.8631

          k = 0.6667-0.3333 1.0000 (  1610 PWs)   bands (ev):

   -14.0454  -9.1271  -9.1104  -7.4881  -2.6898  -2.5246  -0.7156   3.5550
     3.9857   5.2976   6.0939   6.3009  10.3615  10.9235  11.4608  12.4650
    13.2865  16.4955  17.4781  17.6871  18.4182  18.8189  21.1121  22.5387
    22.9435  23.8901  24.2531  25.2897  27.3411  29.4509  29.6597  31.1542
    31.2725  33.7276  34.8196  35.7010  36.3888  37.0984  37.7422  37.9587
    39.1540  39.3086  40.1718  42.3332  42.4201  43.4798  43.9458  45.7495
    47.7695  48.7683  49.5104  50.0846  50.6249  51.3960

          k = 0.5833-0.2500 0.9167 (  1611 PWs)   bands (ev):

   -13.1156 -10.6389  -9.0194  -8.1938  -2.5998  -1.6024  -0.6382   3.0158
     4.3277   4.7123   6.2120   8.3148   9.6972  12.1166  13.2106  13.7490
    14.1577  14.7862  16.1273  16.3329  18.9868  19.8895  20.8312  20.9989
    21.4803  22.0162  23.5419  23.8914  25.9047  27.6505  30.4795  32.2865
    32.8245  34.4604  34.8317  35.8963  36.0109  37.2666  37.9635  38.9721
    39.6839  40.8213  41.8556  42.2651  44.2757  44.9554  45.9196  46.2851
    47.6367  48.0321  48.5082  49.2050  49.9076  50.2318

          k = 0.5000-0.1667 0.8333 (  1610 PWs)   bands (ev):

   -12.0846 -11.8682  -8.7770  -8.6387  -2.5453  -1.7252   0.7108   1.5314
     4.3426   4.5928   7.6512   7.9062  10.6261  11.1815  13.7157  13.8342
    14.5309  14.9991  16.9747  17.5087  17.7411  17.9901  19.6579  20.7013
    21.7808  22.6254  23.2939  24.1340  24.1899  26.8278  30.8328  33.2738
    33.7586  33.9603  34.6658  35.1012  36.1223  37.2218  38.2587  39.9280
    40.7643  41.9543  42.3732  43.0796  44.2757  44.6704  44.8501  46.4675
    47.4396  48.3953  48.8717  49.2320  49.2485  50.8230

          k = 0.6667-0.1667 1.0000 (  1618 PWs)   bands (ev):

   -12.8046  -9.6375  -9.5171  -9.4045  -2.9847  -2.9226   0.4112   3.4781
     5.8750   6.6355   7.4288   7.5456   9.4366  10.8053  12.9090  13.0928
    13.5616  13.7258  14.6914  17.2790  18.7372  19.6119  19.9813  21.5058
    22.1594  22.5595  23.6460  24.3408  25.8565  29.2708  29.8123  31.8366
    31.8823  34.0539  34.8251  36.3838  36.4444  37.3026  37.6653  39.2110
    39.2214  40.9269  41.9373  42.4606  44.0949  44.5409  45.1684  47.1604
    47.2786  47.3496  48.7565  49.9510  51.2086  51.8043

          k = 0.5833-0.0833 0.9167 (  1615 PWs)   bands (ev):

   -11.7497 -10.9123 -10.0917  -9.2745  -2.7508  -1.2835  -0.0105   1.4536
     6.0473   6.8210   8.0864   8.5841   9.6224  10.4161  11.6922  12.3309
    15.0294  16.1041  16.7579  17.1752  18.3935  18.5741  19.1131  20.2155
    20.2540  22.3119  23.0036  23.9188  25.7199  27.4861  30.1347  31.9317
    33.1780  34.4403  35.4185  35.8935  37.5365  38.3440  38.7678  39.4668
    40.1653  41.2290  42.8351  43.2815  43.5245  43.9131  44.8136  45.4454
    47.1968  48.0996  49.1387  49.7226  50.4344  50.9852

          k = 0.5000 0.0000 0.8333 (  1612 PWs)   bands (ev):

   -12.1238 -10.4800 -10.4554  -8.8367  -2.4037  -0.8169  -0.4179   1.1581
     5.6416   5.8567   7.4416   8.1664   9.9872  11.4254  12.3989  12.9233
    15.4492  15.7259  16.3007  17.5990  18.2004  18.5792  19.4051  20.3345
    20.6719  21.7636  23.1436  23.3467  25.0838  28.4845  29.1985  32.4477
    33.8231  34.8428  35.2577  35.2726  37.3130  38.6091  38.6607  39.7559
    40.2432  40.9402  42.1923  42.7716  44.0177  44.3923  44.9522  45.9439
    47.1248  47.4812  48.6193  50.0008  50.0104  51.2811

          k =-0.3333-1.0000 0.0000 (  1618 PWs)   bands (ev):

   -11.2984 -11.2984  -9.6501  -9.6501  -3.0747  -3.0747   1.8414   1.8414
     7.4645   7.4645   8.6501   8.6501   9.6944   9.6944  11.0354  11.0354
    14.7767  14.7767  16.3862  16.3862  17.5675  17.5675  20.1088  20.1088
    22.8480  22.8480  24.0400  24.0400  27.5193  27.5193  30.1815  30.1815
    32.8231  32.8231  35.7441  35.7441  36.5108  36.5108  39.6014  39.6014
    41.8296  41.8296  42.8155  42.8155  43.8799  43.8799  44.9760  44.9760
    48.6232  48.6232  49.4712  49.4712  50.1130  50.1130

          k =-0.5000-1.0000 0.0000 (  1628 PWs)   bands (ev):

   -10.7419 -10.7419 -10.4702 -10.4702  -1.3524  -1.3524  -0.1221  -0.1221
     7.6529   7.6529   8.9179   8.9179   9.1421   9.1421  10.7888  10.7888
    17.3039  17.3039  17.6724  17.6724  18.4028  18.4028  19.1872  19.1872
    19.6135  19.6135  22.7811  22.7811  27.5745  27.5745  29.9094  29.9094
    35.0444  35.0444  36.4385  36.4385  38.2352  38.2352  39.1635  39.1635
    40.1563  40.1563  41.4219  41.4219  44.6932  44.6932  45.6072  45.6072
    48.9804  48.9804  49.2279  49.2279  49.4332  49.4332

     the Fermi energy is    53.4647 ev

     Writing output data file Si.save

     init_run     :      0.19s CPU      0.19s WALL (       1 calls)
     electrons    :    205.49s CPU    255.65s WALL (       1 calls)

     Called by init_run:
     wfcinit      :      0.00s CPU      0.00s WALL (       1 calls)
     potinit      :      0.07s CPU      0.07s WALL (       1 calls)

     Called by electrons:
     c_bands      :    205.27s CPU    255.43s WALL (       1 calls)
     v_of_rho     :      0.06s CPU      0.06s WALL (       1 calls)

     Called by c_bands:
     init_us_2    :      0.07s CPU      0.09s WALL (      72 calls)
     cegterg      :    195.70s CPU    245.66s WALL (     143 calls)

     Called by *egterg:
     h_psi        :    101.15s CPU    101.75s WALL (    2198 calls)
     g_psi        :      0.28s CPU      0.28s WALL (    1983 calls)
     cdiaghg      :     25.39s CPU     25.44s WALL (    2055 calls)

     Called by h_psi:
     add_vuspsi   :      2.74s CPU      2.75s WALL (    2198 calls)

     General routines
     calbec       :      3.02s CPU      3.04s WALL (    2198 calls)
     fft          :      0.03s CPU      0.03s WALL (      10 calls)
     fftw         :     90.68s CPU     91.24s WALL (  109074 calls)
     davcio       :      0.01s CPU      0.08s WALL (      72 calls)

     Parallel routines
     fft_scatter  :      2.16s CPU      2.16s WALL (  109084 calls)

     PWSCF        :  3m27.16s CPU     4m17.41s WALL


   This run was terminated on:  21:30: 3  13Feb2023            

=------------------------------------------------------------------------------=
   JOB DONE.
=------------------------------------------------------------------------------=
