
     Program PWSCF v.5.1 starts on 13Feb2023 at 21:21:13 

     This program is part of the open-source Quantum ESPRESSO suite
     for quantum simulation of materials; please cite
         "P. Giannozzi et al., J. Phys.:Condens. Matter 21 395502 (2009);
          URL http://www.quantum-espresso.org", 
     in publications or presentations arising from this work. More details at
     http://www.quantum-espresso.org/quote

     Parallel version (MPI), running on     1 processors
     Waiting for input...
     Reading input from standard input

     Current dimensions of program PWSCF are:
     Max number of different atomic species (ntypx) = 10
     Max number of k-points (npk) =  40000
     Max angular momentum in pseudopotentials (lmaxx) =  3
               file Si.pbe-mt_fhi.UPF: wavefunction(s)  4f renormalized

     Subspace diagonalization in iterative solution of the eigenvalue problem:
     a serial algorithm will be used


     G-vector sticks info
     --------------------
     sticks:   dense  smooth     PW     G-vecs:    dense   smooth      PW
     Sum         733     733    211                12939    12939    2109



     bravais-lattice index     =            2
     lattice parameter (alat)  =      10.2623  a.u.
     unit-cell volume          =     270.1967 (a.u.)^3
     number of atoms/cell      =            2
     number of atomic types    =            1
     number of electrons       =       108.00
     number of Kohn-Sham states=           54
     kinetic-energy cutoff     =      50.0000  Ry
     charge density cutoff     =     200.0000  Ry
     convergence threshold     =      1.6E-09
     mixing beta               =       0.3000
     number of iterations used =            8  plain     mixing
     Exchange-correlation      = PBE ( 1  4  3  4 0)

     celldm(1)=  10.262347  celldm(2)=   0.000000  celldm(3)=   0.000000
     celldm(4)=   0.000000  celldm(5)=   0.000000  celldm(6)=   0.000000

     crystal axes: (cart. coord. in units of alat)
               a(1) = (  -0.500000   0.000000   0.500000 )  
               a(2) = (   0.000000   0.500000   0.500000 )  
               a(3) = (  -0.500000   0.500000   0.000000 )  

     reciprocal axes: (cart. coord. in units 2 pi/alat)
               b(1) = ( -1.000000 -1.000000  1.000000 )  
               b(2) = (  1.000000  1.000000  1.000000 )  
               b(3) = ( -1.000000  1.000000 -1.000000 )  


     PseudoPot. # 1 for Si read from file:
     /home/acedemo/psudo/Si.pbe-mt_fhi.UPF
     MD5 check sum: 259057c2adf9952f9ced37ae3d9e311d
     Pseudo is Norm-conserving, Zval =  4.0
     Generated using FHI98PP, converted with fhi2upf.x v.5.0.2
     Using radial grid of  495 points,  3 beta functions with: 
                l(1) =   0
                l(2) =   1
                l(3) =   3

     atomic species   valence    mass     pseudopotential
        Si             4.00    28.08550     Si( 1.00)

     48 Sym. Ops., with inversion, found (24 have fractional translation)



   Cartesian axes

     site n.     atom                  positions (alat units)
         1           Si  tau(   1) = (   0.0000000   0.0000000   0.0000000  )
         2           Si  tau(   2) = (   0.2500000   0.2500000   0.2500000  )

     number of k points=    10  Marzari-Vanderbilt smearing, width (Ry)=  0.0500
                       cart. coord. in units 2pi/alat
        k(    1) = (   0.0000000   0.0000000   0.0000000), wk =   0.0160000
        k(    2) = (  -0.2000000   0.2000000  -0.2000000), wk =   0.1280000
        k(    3) = (  -0.4000000   0.4000000  -0.4000000), wk =   0.1280000
        k(    4) = (   0.0000000   0.4000000   0.0000000), wk =   0.0960000
        k(    5) = (  -0.2000000   0.6000000  -0.2000000), wk =   0.3840000
        k(    6) = (   0.6000000  -0.2000000   0.6000000), wk =   0.3840000
        k(    7) = (   0.4000000   0.0000000   0.4000000), wk =   0.1920000
        k(    8) = (   0.0000000   0.8000000   0.0000000), wk =   0.0960000
        k(    9) = (   0.8000000   0.0000000   0.8000000), wk =   0.1920000
        k(   10) = (   0.6000000  -0.2000000   1.0000000), wk =   0.3840000

     Dense  grid:    12939 G-vectors     FFT dimensions: (  36,  36,  36)

     Largest allocated arrays     est. size (Mb)     dimensions
        Kohn-Sham Wavefunctions         1.35 Mb     (    1639,   54)
        NL pseudopotentials             0.55 Mb     (    1639,   22)
        Each V/rho on FFT grid          0.71 Mb     (   46656)
        Each G-vector array             0.10 Mb     (   12939)
        G-vector shells                 0.00 Mb     (     180)
     Largest temporary arrays     est. size (Mb)     dimensions
        Auxiliary wavefunctions         5.40 Mb     (    1639,  216)
        Each subspace H/S matrix        0.71 Mb     (     216,  216)
        Each <psi_i|beta_j> matrix      0.02 Mb     (      22,   54)
        Arrays for rho mixing           5.70 Mb     (   46656,    8)

     Initial potential from superposition of free atoms

     starting charge    7.99859, renormalised to  108.00000
     Starting wfc are   32 randomized atomic wfcs +   22 random wfc

     total cpu time spent up to now is        1.9 secs

     per-process dynamical memory:    28.3 Mb

     Self-consistent Calculation

     iteration #  1     ecut=    50.00 Ry     beta=0.30
     Davidson diagonalization with overlap
     ethr =  1.00E-02,  avg # of iterations =  9.3

     total cpu time spent up to now is       23.0 secs

     total energy              =     360.73813716 Ry
     Harris-Foulkes estimate   =    -119.37472582 Ry
     estimated scf accuracy    <    1008.56081881 Ry

     iteration #  2     ecut=    50.00 Ry     beta=0.30
     Davidson diagonalization with overlap
     ethr =  1.00E-02,  avg # of iterations =  4.3

     total cpu time spent up to now is       33.5 secs

     total energy              =     211.76585433 Ry
     Harris-Foulkes estimate   =     208.05893763 Ry
     estimated scf accuracy    <       8.20916263 Ry

     iteration #  3     ecut=    50.00 Ry     beta=0.30
     Davidson diagonalization with overlap
     ethr =  7.60E-03,  avg # of iterations =  3.6

     total cpu time spent up to now is       42.4 secs

     total energy              =     211.63323698 Ry
     Harris-Foulkes estimate   =     210.48434512 Ry
     estimated scf accuracy    <       2.52413852 Ry

     iteration #  4     ecut=    50.00 Ry     beta=0.30
     Davidson diagonalization with overlap
     ethr =  2.34E-03,  avg # of iterations =  3.8

     total cpu time spent up to now is       50.4 secs

     total energy              =     211.29738088 Ry
     Harris-Foulkes estimate   =     211.03432631 Ry
     estimated scf accuracy    <       0.81415364 Ry

     iteration #  5     ecut=    50.00 Ry     beta=0.30
     Davidson diagonalization with overlap
     ethr =  7.54E-04,  avg # of iterations =  3.2

     total cpu time spent up to now is       57.3 secs

     total energy              =     211.28883400 Ry
     Harris-Foulkes estimate   =     211.20011608 Ry
     estimated scf accuracy    <       0.23543492 Ry

     iteration #  6     ecut=    50.00 Ry     beta=0.30
     Davidson diagonalization with overlap
     ethr =  2.18E-04,  avg # of iterations =  3.9

     total cpu time spent up to now is       64.1 secs

     total energy              =     211.25272210 Ry
     Harris-Foulkes estimate   =     211.25188914 Ry
     estimated scf accuracy    <       0.00331519 Ry

     iteration #  7     ecut=    50.00 Ry     beta=0.30
     Davidson diagonalization with overlap
     ethr =  3.07E-06,  avg # of iterations =  4.7

     total cpu time spent up to now is       72.6 secs

     total energy              =     211.24892863 Ry
     Harris-Foulkes estimate   =     211.24674385 Ry
     estimated scf accuracy    <       0.00672975 Ry

     iteration #  8     ecut=    50.00 Ry     beta=0.30
     Davidson diagonalization with overlap
     ethr =  3.07E-06,  avg # of iterations =  3.6

     total cpu time spent up to now is       79.0 secs

     total energy              =     211.24563606 Ry
     Harris-Foulkes estimate   =     211.24546623 Ry
     estimated scf accuracy    <       0.00046250 Ry

     iteration #  9     ecut=    50.00 Ry     beta=0.30
     Davidson diagonalization with overlap
     ethr =  4.28E-07,  avg # of iterations =  2.9

     total cpu time spent up to now is       84.7 secs

     total energy              =     211.24564459 Ry
     Harris-Foulkes estimate   =     211.24557513 Ry
     estimated scf accuracy    <       0.00017274 Ry

     iteration # 10     ecut=    50.00 Ry     beta=0.30
     Davidson diagonalization with overlap
     ethr =  1.60E-07,  avg # of iterations =  3.1

     total cpu time spent up to now is       89.3 secs

     total energy              =     211.24562800 Ry
     Harris-Foulkes estimate   =     211.24562589 Ry
     estimated scf accuracy    <       0.00001113 Ry

     iteration # 11     ecut=    50.00 Ry     beta=0.30
     Davidson diagonalization with overlap
     ethr =  1.03E-08,  avg # of iterations =  3.3

     total cpu time spent up to now is       94.3 secs

     total energy              =     211.24563054 Ry
     Harris-Foulkes estimate   =     211.24562677 Ry
     estimated scf accuracy    <       0.00000781 Ry

     iteration # 12     ecut=    50.00 Ry     beta=0.30
     Davidson diagonalization with overlap
     ethr =  7.23E-09,  avg # of iterations =  3.5

     total cpu time spent up to now is       99.7 secs

     total energy              =     211.24562871 Ry
     Harris-Foulkes estimate   =     211.24562853 Ry
     estimated scf accuracy    <       0.00000073 Ry

     iteration # 13     ecut=    50.00 Ry     beta=0.30
     Davidson diagonalization with overlap
     ethr =  6.77E-10,  avg # of iterations =  3.1

     total cpu time spent up to now is      105.3 secs

     total energy              =     211.24562874 Ry
     Harris-Foulkes estimate   =     211.24562867 Ry
     estimated scf accuracy    <       0.00000014 Ry

     iteration # 14     ecut=    50.00 Ry     beta=0.30
     Davidson diagonalization with overlap
     ethr =  1.27E-10,  avg # of iterations =  3.5

     total cpu time spent up to now is      113.6 secs

     total energy              =     211.24562871 Ry
     Harris-Foulkes estimate   =     211.24562870 Ry
     estimated scf accuracy    <       0.00000002 Ry

     iteration # 15     ecut=    50.00 Ry     beta=0.30
     Davidson diagonalization with overlap
     ethr =  1.72E-11,  avg # of iterations =  4.8

     total cpu time spent up to now is      121.1 secs

     total energy              =     211.24423645 Ry
     Harris-Foulkes estimate   =     211.24423665 Ry
     estimated scf accuracy    <       0.00164025 Ry

     iteration # 16     ecut=    50.00 Ry     beta=0.30
     Davidson diagonalization with overlap
     ethr =  1.72E-11,  avg # of iterations =  1.0

     total cpu time spent up to now is      126.9 secs

     total energy              =     211.24423683 Ry
     Harris-Foulkes estimate   =     211.24423645 Ry
     estimated scf accuracy    <       0.00164081 Ry

     iteration # 17     ecut=    50.00 Ry     beta=0.30
     Davidson diagonalization with overlap
     ethr =  1.72E-11,  avg # of iterations =  1.0

     total cpu time spent up to now is      131.0 secs

     total energy              =     211.24423715 Ry
     Harris-Foulkes estimate   =     211.24423683 Ry
     estimated scf accuracy    <       0.00163983 Ry

     iteration # 18     ecut=    50.00 Ry     beta=0.30
     Davidson diagonalization with overlap
     ethr =  1.72E-11,  avg # of iterations =  1.0

     total cpu time spent up to now is      135.2 secs

     total energy              =     211.24423629 Ry
     Harris-Foulkes estimate   =     211.24423715 Ry
     estimated scf accuracy    <       0.00163863 Ry

     iteration # 19     ecut=    50.00 Ry     beta=0.30
     Davidson diagonalization with overlap
     ethr =  1.72E-11,  avg # of iterations =  1.2

     total cpu time spent up to now is      139.2 secs

     total energy              =     211.24423731 Ry
     Harris-Foulkes estimate   =     211.24423630 Ry
     estimated scf accuracy    <       0.00164118 Ry

     iteration # 20     ecut=    50.00 Ry     beta=0.30
     Davidson diagonalization with overlap
     ethr =  1.72E-11,  avg # of iterations =  1.4

     total cpu time spent up to now is      143.5 secs

     total energy              =     211.24423564 Ry
     Harris-Foulkes estimate   =     211.24423731 Ry
     estimated scf accuracy    <       0.00163823 Ry

     iteration # 21     ecut=    50.00 Ry     beta=0.30
     Davidson diagonalization with overlap
     ethr =  1.72E-11,  avg # of iterations =  2.9

     total cpu time spent up to now is      147.7 secs

     total energy              =     211.24423580 Ry
     Harris-Foulkes estimate   =     211.24423564 Ry
     estimated scf accuracy    <       0.00164402 Ry

     iteration # 22     ecut=    50.00 Ry     beta=0.30
     Davidson diagonalization with overlap
     ethr =  1.72E-11,  avg # of iterations =  1.2

     total cpu time spent up to now is      151.7 secs

     total energy              =     211.24422613 Ry
     Harris-Foulkes estimate   =     211.24423580 Ry
     estimated scf accuracy    <       0.00164313 Ry

     iteration # 23     ecut=    50.00 Ry     beta=0.30
     Davidson diagonalization with overlap
     ethr =  1.72E-11,  avg # of iterations =  4.0

     total cpu time spent up to now is      158.7 secs

     total energy              =     211.24506771 Ry
     Harris-Foulkes estimate   =     211.24422609 Ry
     estimated scf accuracy    <       0.00167904 Ry

     iteration # 24     ecut=    50.00 Ry     beta=0.30
     Davidson diagonalization with overlap
     ethr =  1.72E-11,  avg # of iterations =  9.8

     total cpu time spent up to now is      171.6 secs

     total energy              =     211.24346366 Ry
     Harris-Foulkes estimate   =     211.24355064 Ry
     estimated scf accuracy    <       0.00141794 Ry

     iteration # 25     ecut=    50.00 Ry     beta=0.30
     Davidson diagonalization with overlap
     ethr =  1.72E-11,  avg # of iterations =  6.3

     total cpu time spent up to now is      181.9 secs

     total energy              =     211.24355164 Ry
     Harris-Foulkes estimate   =     211.24346045 Ry
     estimated scf accuracy    <       0.00176636 Ry

     iteration # 26     ecut=    50.00 Ry     beta=0.30
     Davidson diagonalization with overlap
     ethr =  1.72E-11,  avg # of iterations =  6.1

     total cpu time spent up to now is      192.5 secs

     total energy              =     211.24388521 Ry
     Harris-Foulkes estimate   =     211.24354858 Ry
     estimated scf accuracy    <       0.00141831 Ry

     iteration # 27     ecut=    50.00 Ry     beta=0.30
     Davidson diagonalization with overlap
     ethr =  1.72E-11,  avg # of iterations =  8.1

     total cpu time spent up to now is      204.0 secs

     total energy              =     211.24391187 Ry
     Harris-Foulkes estimate   =     211.24382535 Ry
     estimated scf accuracy    <       0.00033670 Ry

     iteration # 28     ecut=    50.00 Ry     beta=0.30
     Davidson diagonalization with overlap
     ethr =  1.72E-11,  avg # of iterations =  7.0

     total cpu time spent up to now is      215.4 secs

     total energy              =     211.24391220 Ry
     Harris-Foulkes estimate   =     211.24389341 Ry
     estimated scf accuracy    <       0.00005253 Ry

     iteration # 29     ecut=    50.00 Ry     beta=0.30
     Davidson diagonalization with overlap
     ethr =  1.72E-11,  avg # of iterations =  6.5

     total cpu time spent up to now is      230.8 secs

     total energy              =     211.24390694 Ry
     Harris-Foulkes estimate   =     211.24390625 Ry
     estimated scf accuracy    <       0.00000113 Ry

     iteration # 30     ecut=    50.00 Ry     beta=0.30
     Davidson diagonalization with overlap
     ethr =  1.72E-11,  avg # of iterations =  4.9

     total cpu time spent up to now is      241.2 secs

     total energy              =     211.24390656 Ry
     Harris-Foulkes estimate   =     211.24390628 Ry
     estimated scf accuracy    <       0.00000101 Ry

     iteration # 31     ecut=    50.00 Ry     beta=0.30
     Davidson diagonalization with overlap
     ethr =  1.72E-11,  avg # of iterations =  4.2

     total cpu time spent up to now is      248.5 secs

     total energy              =     211.24390656 Ry
     Harris-Foulkes estimate   =     211.24390650 Ry
     estimated scf accuracy    <       0.00000016 Ry

     iteration # 32     ecut=    50.00 Ry     beta=0.30
     Davidson diagonalization with overlap
     ethr =  1.72E-11,  avg # of iterations =  4.1

     total cpu time spent up to now is      255.6 secs

     End of self-consistent calculation

          k = 0.0000 0.0000 0.0000 (  1639 PWs)   bands (ev):

   -16.8227  -2.7354  -2.7354  -2.7354  -2.5629  -2.5629  -2.5629  -0.1249
     0.2799   2.0363   2.0363   2.8028   2.8028   2.8028   7.7936  20.0288
    20.0288  20.0288  21.3941  21.3941  22.9578  22.9578  22.9578  23.0316
    23.0316  23.0316  29.1836  33.3348  33.3348  33.3348  34.1642  34.1642
    34.5027  34.5027  36.4351  36.4351  36.4351  38.1509  38.1509  38.1509
    38.2442  38.2442  38.2442  38.2913  38.2913  38.2913  38.3870  38.3870
    38.3870  41.3050  41.6835  41.9758  41.9758  41.9758

          k =-0.2000 0.2000-0.2000 (  1606 PWs)   bands (ev):

   -16.2206  -7.3510  -4.0090  -4.0090  -2.1479  -1.1329  -1.1329   0.1057
     0.1057   0.2114   2.6605   5.1196   6.9182   6.9182  10.1687  14.5304
    14.5304  16.1368  21.2532  21.2532  23.4745  23.4745  23.5578  24.2922
    27.4312  27.4312  28.1848  29.7809  29.7809  30.5727  30.5727  31.1511
    31.7502  31.7502  31.8832  32.8546  34.9277  34.9277  36.2414  37.9811
    37.9811  38.1409  39.9206  39.9206  39.9955  41.4183  42.0836  42.0836
    43.4065  43.4065  45.0545  46.2597  47.0438  47.0438

          k =-0.4000 0.4000-0.4000 (  1616 PWs)   bands (ev):

   -14.4229 -11.4380  -4.2719  -4.2719  -3.0558  -3.0558  -2.4087  -1.1273
     3.6383   3.6383   5.8181   8.5603   8.5603  10.9738  12.5131  12.5567
    12.5567  14.8061  19.4479  19.4479  20.3210  21.4473  22.7088  22.7088
    25.0237  25.0237  25.2990  27.0830  27.0830  27.4916  27.4916  28.1821
    28.6700  31.1974  34.3538  34.3538  36.1545  36.9576  36.9576  38.5037
    39.8247  39.8247  41.7363  42.7749  42.7749  45.2443  46.6957  46.6957
    48.1926  48.1926  48.9458  51.0022  51.0022  51.1967

          k = 0.0000 0.4000 0.0000 (  1607 PWs)   bands (ev):

   -16.0201  -5.7278  -5.7278  -4.6544  -4.5631  -4.2635   1.7454   1.7454
     2.8453   3.2398   3.7094   3.7968   3.7968   6.7991  12.2989  14.5524
    14.5524  14.9352  17.6045  20.7899  23.2645  23.6803  23.6803  25.6781
    25.6781  26.5611  28.1408  29.9780  29.9780  30.1116  30.3056  32.4665
    33.3457  33.3457  33.4662  33.5129  34.7427  34.7810  34.7810  35.7854
    35.7854  37.6529  37.8871  41.2470  41.2470  41.5628  41.7248  42.7307
    42.7307  43.0402  43.4032  47.4466  48.8146  48.8146

          k =-0.2000 0.6000-0.2000 (  1619 PWs)   bands (ev):

   -14.6209  -9.6777  -6.7605  -6.3095  -5.1564  -1.8711   0.5217   1.9089
     2.1915   5.3037   6.7892   8.3307   8.6297   9.6972  10.1148  10.5086
    16.0136  16.4768  17.0915  17.2282  18.8369  21.3533  21.7520  23.6009
    24.7397  24.8212  25.4272  25.6030  27.4402  29.2676  30.1005  31.3773
    31.5733  31.8860  33.0153  34.7853  36.5015  36.8501  37.5299  38.4521
    39.4863  39.5333  40.0577  40.7308  41.2777  42.0087  42.0590  44.6964
    47.0873  47.2887  49.9760  50.9126  51.3483  52.2227

          k = 0.6000-0.2000 0.6000 (  1596 PWs)   bands (ev):

   -13.0389 -12.0227  -8.1206  -5.7351  -4.5882  -0.8102   0.4002   2.3807
     2.9091   3.0652   4.9556   9.8345  10.1321  11.0707  12.5545  14.9071
    15.3771  15.9255  17.1200  18.0264  18.0485  18.8356  19.5441  19.7882
    20.9066  23.2369  25.7171  26.3737  26.5369  27.2589  28.7538  30.6238
    32.0432  32.8473  33.9826  34.7914  35.4501  36.0415  39.8710  41.0375
    41.1149  41.8066  42.7018  43.0322  43.7625  44.7067  45.2331  46.6637
    48.2805  48.3586  48.9323  49.7944  50.0346  50.2965

          k = 0.4000 0.0000 0.4000 (  1610 PWs)   bands (ev):

   -15.2198  -8.3241  -8.3089  -4.0363  -2.9350  -1.0035  -0.9584   0.1363
     0.3578   4.2128   5.0056   7.5558   8.2177   8.5117  11.7644  13.6915
    14.8780  15.7557  16.1640  18.0121  22.2633  22.3354  22.8058  23.8194
    24.6017  24.7389  27.1199  27.6938  29.5140  29.8306  30.4057  30.4135
    31.3068  31.5797  31.8134  31.9309  33.5805  36.2504  37.1166  37.5324
    38.9980  39.1678  41.7772  42.5185  42.9654  43.9846  44.1710  45.1404
    45.1885  46.2525  46.3404  48.1359  48.4568  48.5656

          k = 0.0000 0.8000 0.0000 (  1624 PWs)   bands (ev):

   -13.6242  -9.6740  -7.2758  -7.2758  -6.0981  -6.0732   5.2711   5.3539
     5.3539   7.6675   8.3881   8.3881   8.9109   9.3082   9.5608   9.5608
    10.4932  13.3355  16.5088  16.5088  17.4381  18.1864  21.4764  23.1805
    25.8209  25.8209  26.4108  28.2924  29.3077  29.3077  30.9222  31.0152
    31.7767  32.0935  33.2078  33.2078  33.5206  33.5206  34.3927  35.8437
    39.3417  39.3417  41.6259  43.2276  45.3768  45.3768  47.5490  48.0453
    48.8462  48.9422  48.9422  49.0177  51.9718  51.9718

          k = 0.8000 0.0000 0.8000 (  1622 PWs)   bands (ev):

   -11.4596 -11.4452 -10.4431  -7.0827  -5.8929  -2.5811   3.6169   3.6706
     4.7910   4.9070   8.8150   9.5070  10.6932  11.3097  12.0444  12.7560
    12.7572  13.5116  14.0881  15.5982  16.6593  17.8919  20.0899  20.3308
    24.3984  24.8727  25.9034  27.1331  27.4451  28.0671  28.6996  29.0911
    30.1169  30.3645  35.2575  35.8438  35.9958  37.5526  39.8501  40.5350
    40.8938  40.9461  42.1830  43.6025  44.3705  44.8858  45.7454  46.7578
    47.1901  48.5096  48.5638  49.0403  50.8014  51.0996

          k = 0.6000-0.2000 1.0000 (  1616 PWs)   bands (ev):

   -12.8332  -9.8891  -9.8647  -8.8811  -2.2379  -2.0140  -0.7002   2.8230
     5.4608   5.7611   6.9456   7.5249   9.9892  11.3281  13.4567  13.4606
    13.8965  14.1533  15.4693  17.5174  18.2884  20.4437  20.5965  20.7685
    21.7960  21.8474  22.6075  23.5090  25.4970  29.0277  29.6048  32.3830
    32.8219  34.4323  35.2964  36.5105  36.9217  37.5070  37.9261  38.5066
    39.2088  40.1209  42.3375  43.4646  43.9394  44.7879  45.3160  46.5026
    46.6682  47.0342  49.1327  49.8546  50.8794  51.3654

     the Fermi energy is    52.6300 ev

!    total energy              =     211.24390654 Ry
     Harris-Foulkes estimate   =     211.24390654 Ry
     estimated scf accuracy    <          1.6E-10 Ry

     The total energy is the sum of the following terms:

     one-electron contribution =     355.31991902 Ry
     hartree contribution      =       4.40349074 Ry
     xc contribution           =    -131.68979381 Ry
     ewald contribution        =     -16.79708774 Ry
     smearing contrib. (-TS)   =       0.00737832 Ry

     convergence has been achieved in  32 iterations

     Forces acting on atoms (Ry/au):

     atom    1 type  1   force =     0.00000000    0.00000000    0.00000000
     atom    2 type  1   force =     0.00000000    0.00000000   -0.00000000

     Total force =     0.000000     Total SCF correction =     0.000000


     entering subroutine stress ...

          total   stress  (Ry/bohr**3)                   (kbar)     P=********
   0.73310615   0.00000000   0.00000000     107843.62      0.00      0.00
   0.00000000   0.73310615  -0.00000000          0.00 107843.62     -0.00
   0.00000000  -0.00000000   0.73310615          0.00     -0.00 107843.62


     Writing output data file Si.save

     init_run     :      1.82s CPU      1.86s WALL (       1 calls)
     electrons    :    245.10s CPU    253.63s WALL (       1 calls)
     forces       :      0.18s CPU      0.18s WALL (       1 calls)
     stress       :      0.79s CPU      0.79s WALL (       1 calls)

     Called by init_run:
     wfcinit      :      1.63s CPU      1.64s WALL (       1 calls)
     potinit      :      0.06s CPU      0.06s WALL (       1 calls)

     Called by electrons:
     c_bands      :    223.13s CPU    231.19s WALL (      32 calls)
     sum_band     :     20.62s CPU     21.04s WALL (      32 calls)
     v_of_rho     :      1.25s CPU      1.29s WALL (      33 calls)
     mix_rho      :      0.13s CPU      0.13s WALL (      32 calls)

     Called by c_bands:
     init_us_2    :      0.88s CPU      0.96s WALL (     670 calls)
     cegterg      :    222.32s CPU    230.25s WALL (     320 calls)

     Called by *egterg:
     h_psi        :    127.23s CPU    131.26s WALL (    1643 calls)
     g_psi        :      0.29s CPU      0.30s WALL (    1313 calls)
     cdiaghg      :     23.38s CPU     23.96s WALL (    1633 calls)

     Called by h_psi:
     add_vuspsi   :      3.50s CPU      3.58s WALL (    1643 calls)

     General routines
     calbec       :      3.90s CPU      4.03s WALL (    1663 calls)
     fft          :      0.50s CPU      0.52s WALL (     370 calls)
     fftw         :    131.75s CPU    135.75s WALL (  123752 calls)
     davcio       :      0.00s CPU      0.00s WALL (      10 calls)

     Parallel routines
     fft_scatter  :      3.36s CPU      3.44s WALL (  124122 calls)

     PWSCF        :  4m 7.99s CPU     4m16.60s WALL


   This run was terminated on:  21:25:29  13Feb2023            

=------------------------------------------------------------------------------=
   JOB DONE.
=------------------------------------------------------------------------------=
