
     Program PWSCF v.5.1 starts on 13Feb2023 at 22:20: 3 

     This program is part of the open-source Quantum ESPRESSO suite
     for quantum simulation of materials; please cite
         "P. Giannozzi et al., J. Phys.:Condens. Matter 21 395502 (2009);
          URL http://www.quantum-espresso.org", 
     in publications or presentations arising from this work. More details at
     http://www.quantum-espresso.org/quote

     Parallel version (MPI), running on     1 processors
     Waiting for input...
     Reading input from standard input

     Current dimensions of program PWSCF are:
     Max number of different atomic species (ntypx) = 10
     Max number of k-points (npk) =  40000
     Max angular momentum in pseudopotentials (lmaxx) =  3

     Atomic positions and unit cell read from directory:
     ./out/Si.save/

               file Si.pbe-mt_fhi.UPF: wavefunction(s)  4f renormalized

     Subspace diagonalization in iterative solution of the eigenvalue problem:
     a serial algorithm will be used


     G-vector sticks info
     --------------------
     sticks:   dense  smooth     PW     G-vecs:    dense   smooth      PW
     Sum         733     733    211                12939    12939    2109



     bravais-lattice index     =            2
     lattice parameter (alat)  =      10.2623  a.u.
     unit-cell volume          =     270.1967 (a.u.)^3
     number of atoms/cell      =            2
     number of atomic types    =            1
     number of electrons       =        48.00
     number of Kohn-Sham states=           30
     kinetic-energy cutoff     =      50.0000  Ry
     charge density cutoff     =     200.0000  Ry
     Exchange-correlation      = PBE ( 1  4  3  4 0)

     celldm(1)=  10.262347  celldm(2)=   0.000000  celldm(3)=   0.000000
     celldm(4)=   0.000000  celldm(5)=   0.000000  celldm(6)=   0.000000

     crystal axes: (cart. coord. in units of alat)
               a(1) = (  -0.500000   0.000000   0.500000 )  
               a(2) = (   0.000000   0.500000   0.500000 )  
               a(3) = (  -0.500000   0.500000   0.000000 )  

     reciprocal axes: (cart. coord. in units 2 pi/alat)
               b(1) = ( -1.000000 -1.000000  1.000000 )  
               b(2) = (  1.000000  1.000000  1.000000 )  
               b(3) = ( -1.000000  1.000000 -1.000000 )  


     PseudoPot. # 1 for Si read from file:
     /home/acedemo/psudo/Si.pbe-mt_fhi.UPF
     MD5 check sum: 259057c2adf9952f9ced37ae3d9e311d
     Pseudo is Norm-conserving, Zval =  4.0
     Generated using FHI98PP, converted with fhi2upf.x v.5.0.2
     Using radial grid of  495 points,  3 beta functions with: 
                l(1) =   0
                l(2) =   1
                l(3) =   3

     atomic species   valence    mass     pseudopotential
        Si             4.00    28.08550     Si( 1.00)

     48 Sym. Ops., with inversion, found (24 have fractional translation)



   Cartesian axes

     site n.     atom                  positions (alat units)
         1           Si  tau(   1) = (   0.0000000   0.0000000   0.0000000  )
         2           Si  tau(   2) = (   0.2500000   0.2500000   0.2500000  )

     number of k points=    51  Marzari-Vanderbilt smearing, width (Ry)=  0.0500
                       cart. coord. in units 2pi/alat
        k(    1) = (   0.5000000   0.5000000   0.5000000), wk =   0.0000000
        k(    2) = (   0.4500000   0.4500000   0.4500000), wk =   0.0014779
        k(    3) = (   0.4000000   0.4000000   0.4000000), wk =   0.0029558
        k(    4) = (   0.3500000   0.3500000   0.3500000), wk =   0.0044337
        k(    5) = (   0.3000000   0.3000000   0.3000000), wk =   0.0059116
        k(    6) = (   0.2500000   0.2500000   0.2500000), wk =   0.0073895
        k(    7) = (   0.2000000   0.2000000   0.2000000), wk =   0.0088674
        k(    8) = (   0.1500000   0.1500000   0.1500000), wk =   0.0103453
        k(    9) = (   0.1000000   0.1000000   0.1000000), wk =   0.0118232
        k(   10) = (   0.0500000   0.0500000   0.0500000), wk =   0.0133011
        k(   11) = (   0.0000000   0.0000000   0.0000000), wk =   0.0147790
        k(   12) = (   0.0000000   0.1000000   0.0000000), wk =   0.0168691
        k(   13) = (   0.0000000   0.2000000   0.0000000), wk =   0.0189591
        k(   14) = (   0.0000000   0.3000000   0.0000000), wk =   0.0210492
        k(   15) = (   0.0000000   0.4000000   0.0000000), wk =   0.0231392
        k(   16) = (   0.0000000   0.5000000   0.0000000), wk =   0.0252293
        k(   17) = (   0.0000000   0.6000000   0.0000000), wk =   0.0273194
        k(   18) = (   0.0000000   0.7000000   0.0000000), wk =   0.0294094
        k(   19) = (   0.0000000   0.8000000   0.0000000), wk =   0.0314995
        k(   20) = (   0.0000000   0.9000000   0.0000000), wk =   0.0335896
        k(   21) = (   0.0000000   1.0000000   0.0000000), wk =   0.0356796
        k(   22) = (   0.0000000   0.9750000   0.0750000), wk =   0.0370621
        k(   23) = (   0.0000000   0.9500000   0.1500000), wk =   0.0384445
        k(   24) = (  -0.0000000   0.9250000   0.2250000), wk =   0.0398270
        k(   25) = (  -0.0000000   0.9000000   0.3000000), wk =   0.0412094
        k(   26) = (   0.0000000   0.8750000   0.3750000), wk =   0.0425919
        k(   27) = (   0.0000000   0.8500000   0.4500000), wk =   0.0439743
        k(   28) = (   0.0000000   0.8250000   0.5250000), wk =   0.0453568
        k(   29) = (  -0.0000000   0.8000000   0.6000000), wk =   0.0467392
        k(   30) = (  -0.0000000   0.7750000   0.6750000), wk =   0.0481217
        k(   31) = (   0.0000000   0.7500000   0.7500000), wk =   0.0495041
        k(   32) = (   0.0000000   0.7250000   0.7750000), wk =   0.0500266
        k(   33) = (   0.0000000   0.7000000   0.8000000), wk =   0.0505491
        k(   34) = (   0.0000000   0.6750000   0.8250000), wk =   0.0510717
        k(   35) = (   0.0000000   0.6500000   0.8500000), wk =   0.0515942
        k(   36) = (   0.0000000   0.6250000   0.8750000), wk =   0.0521167
        k(   37) = (   0.0000000   0.6000000   0.9000000), wk =   0.0526392
        k(   38) = (   0.0000000   0.5750000   0.9250000), wk =   0.0531617
        k(   39) = (   0.0000000   0.5500000   0.9500000), wk =   0.0536842
        k(   40) = (   0.0000000   0.5250000   0.9750000), wk =   0.0542067
        k(   41) = (   0.0000000   0.5000000   1.0000000), wk =   0.0547293
        k(   42) = (   0.0000000   0.4500000   0.9000000), wk =   0.0574942
        k(   43) = (  -0.0000000   0.4000000   0.8000000), wk =   0.0602591
        k(   44) = (  -0.0000000   0.3500000   0.7000000), wk =   0.0630239
        k(   45) = (  -0.0000000   0.3000000   0.6000000), wk =   0.0657888
        k(   46) = (   0.0000000   0.2500000   0.5000000), wk =   0.0685537
        k(   47) = (   0.0000000   0.2000000   0.4000000), wk =   0.0713186
        k(   48) = (   0.0000000   0.1500000   0.3000000), wk =   0.0740835
        k(   49) = (  -0.0000000   0.1000000   0.2000000), wk =   0.0768484
        k(   50) = (  -0.0000000   0.0500000   0.1000000), wk =   0.0796133
        k(   51) = (   0.0000000   0.0000000   0.0000000), wk =   0.0823782

     Dense  grid:    12939 G-vectors     FFT dimensions: (  36,  36,  36)

     Largest allocated arrays     est. size (Mb)     dimensions
        Kohn-Sham Wavefunctions         0.75 Mb     (    1639,   30)
        NL pseudopotentials             0.55 Mb     (    1639,   22)
        Each V/rho on FFT grid          0.71 Mb     (   46656)
        Each G-vector array             0.10 Mb     (   12939)
        G-vector shells                 0.00 Mb     (     180)
     Largest temporary arrays     est. size (Mb)     dimensions
        Auxiliary wavefunctions         3.00 Mb     (    1639,  120)
        Each subspace H/S matrix        0.22 Mb     (     120,  120)
        Each <psi_i|beta_j> matrix      0.01 Mb     (      22,   30)

     The potential is recalculated from file :
     ./out/Si.save/charge-density.dat

     Starting wfc are   32 randomized atomic wfcs

     Band Structure Calculation
     Davidson diagonalization with overlap

     ethr =  3.33E-12,  avg # of iterations = 20.9

     total cpu time spent up to now is       63.1 secs

     End of band structure calculation

          k = 0.5000 0.5000 0.5000 (  1622 PWs)   bands (ev):

    -8.5022  -7.6893   0.2026   0.2026   2.1268   2.1268   2.2616   3.6108
    10.5154  10.5154  11.1475  11.1475  11.1475  13.8195  19.1415  20.1849
    20.1849  20.2901  21.5550  21.5550  22.8449  23.9321  26.7803  26.7803
    28.9561  28.9561  30.5800  30.5800  31.3748  31.5936

          k = 0.4500 0.4500 0.4500 (  1610 PWs)   bands (ev):

    -8.9002  -7.2206   0.2084   0.2084   2.1874   2.1874   2.2529   3.6861
     9.6516   9.6516  10.7955  12.0841  12.0841  14.1837  18.0309  19.1208
    19.1208  20.7946  22.2818  22.6548  22.6548  25.2080  26.7426  26.7426
    28.8158  28.8158  30.7675  30.7675  31.1773  31.7323

          k = 0.4000 0.4000 0.4000 (  1616 PWs)   bands (ev):

    -9.4785  -6.4306   0.2302   0.2302   2.2396   2.3627   2.3627   3.8976
     8.6117   8.6117  10.0560  13.3415  13.3415  14.8062  16.6593  17.6366
    17.6366  19.6468  23.4779  24.1879  24.1879  26.7062  26.7062  26.9624
    28.5181  28.5181  30.7525  31.2167  31.2167  32.1178

          k = 0.3500 0.3500 0.3500 (  1610 PWs)   bands (ev):

   -10.0162  -5.5410   0.2788   0.2788   2.2459   2.6362   2.6362   4.2165
     7.6432   7.6432   9.2284  14.2234  14.6554  14.6554  16.1998  16.1998
    16.6324  18.2017  25.0699  25.3072  25.3072  27.0683  27.0683  28.2445
    28.2445  28.5497  30.2853  31.8001  31.8001  32.1654

          k = 0.3000 0.3000 0.3000 (  1615 PWs)   bands (ev):

   -10.4898  -4.5769   0.3657   0.3657   2.2896   2.9810   2.9810   4.6146
     6.7726   6.7726   8.4122  12.7180  14.6887  14.6887  16.1701  16.1701
    16.7526  17.6849  25.5021  25.5021  26.6521  27.6060  27.6060  28.7826
    28.7826  29.4280  29.8465  32.4586  32.4586  32.9883

          k = 0.2500 0.2500 0.2500 (  1618 PWs)   bands (ev):

   -10.8937  -3.5467   0.4995   0.4995   2.3782   3.3443   3.3443   5.0597
     6.0459   6.0459   7.6492  11.1437  13.3806  13.3806  15.4565  17.6103
    17.6103  18.8326  25.3681  25.3681  27.4145  27.4145  27.9654  29.4611
    29.7502  30.4568  30.4568  33.1414  33.1414  34.0249

          k = 0.2000 0.2000 0.2000 (  1606 PWs)   bands (ev):

   -11.2256  -2.4575   0.6853   0.6853   2.5098   3.5882   3.5882   5.4840
     5.5953   5.5953   6.9828   9.6424  12.1190  12.1190  14.2365  19.1266
    19.1266  20.0436  25.1961  25.1961  27.1839  27.1839  28.3070  29.1395
    30.6800  32.1668  32.1668  33.6650  33.6650  34.4540

          k = 0.1500 0.1500 0.1500 (  1600 PWs)   bands (ev):

   -11.4845  -1.3198   0.9248   0.9248   2.6682   3.4859   3.4859   5.6438
     5.6438   5.6644   6.5096   8.3827  10.9316  10.9316  13.1226  20.6726
    20.6726  21.2556  25.0579  25.0579  26.9840  26.9840  27.9406  28.8865
    32.0809  32.2334  32.2334  34.3424  34.3424  35.0759

          k = 0.1000 0.1000 0.1000 (  1606 PWs)   bands (ev):

   -11.6698  -0.1552   1.2133   1.2133   2.8010   3.1012   3.1012   5.3875
     5.9877   6.1249   6.1249   7.8729   9.8299   9.8299  12.1490  22.1801
    22.1801  22.4132  25.0068  25.0068  26.8119  26.8119  27.3522  28.7046
    30.7201  30.7201  33.2925  35.0616  35.1934  35.1934

          k = 0.0500 0.0500 0.0500 (  1630 PWs)   bands (ev):

   -11.7811   0.9767   1.5260   1.5260   2.6738   2.6738   2.7487   5.0136
     5.2272   6.7947   6.7947   8.0791   8.8442   8.8442  11.4050  23.3988
    23.4123  23.4123  25.1851  25.1851  26.6157  26.6157  26.7127  28.5950
    29.2515  29.2515  33.6888  35.4392  35.6520  35.6520

          k = 0.0000 0.0000 0.0000 (  1639 PWs)   bands (ev):

   -11.8182   1.7171   1.7171   1.7171   2.4381   2.4381   2.4381   4.8326
     4.9163   7.2910   7.2910   8.2489   8.2489   8.2489  11.0993  23.8604
    23.8604  23.8604  25.5838  25.5838  26.3679  26.3679  26.3679  28.5584
    28.5584  28.5584  33.6728  35.8113  35.8113  35.8113

          k = 0.0000 0.1000 0.0000 (  1627 PWs)   bands (ev):

   -11.7687   1.1597   1.1597   1.4651   2.1553   3.0641   3.0641   5.0150
     5.2874   6.2955   7.3410   8.3222   8.3222   9.0780  11.5600  23.1174
    23.1174  23.9052  24.6947  24.9495  26.7627  26.7627  26.8194  29.0238
    29.0238  29.4983  33.7093  35.3333  35.3333  35.8041

          k = 0.0000 0.2000 0.0000 (  1599 PWs)   bands (ev):

   -11.6203   0.4246   0.4246   0.8846   1.5748   3.9993   3.9993   4.3090
     6.1319   6.2530   7.4911   8.5475   8.5475   9.7187  12.9209  21.7329
    21.7329  23.1365  23.9271  24.0395  27.1998  27.1998  27.3055  30.3124
    30.3124  31.1851  33.5466  34.0663  34.0663  35.2004

          k = 0.0000 0.3000 0.0000 (  1607 PWs)   bands (ev):

   -11.3733  -0.2494  -0.2494   0.1719   0.9551   2.9176   4.9872   4.9872
     7.1883   7.2091   7.7411   8.9420   8.9420  10.1206  14.7836  20.2526
    20.2526  21.5172  22.8168  24.2631  27.5212  27.5260  27.5260  31.7494
    31.7494  32.5708  32.5708  32.7599  32.9136  33.0769

          k = 0.0000 0.4000 0.0000 (  1607 PWs)   bands (ev):

   -11.0279  -0.8422  -0.8422  -0.6329   0.3807   1.6375   5.9784   5.9784
     8.0910   8.3656   8.3794   9.5340   9.5340  10.5083  16.8636  18.7964
    18.7964  19.9420  21.6892  24.5751  27.2698  27.8631  27.8631  30.1124
    30.1124  30.9059  31.6636  33.9505  34.0511  34.0511

          k = 0.0000 0.5000 0.0000 (  1612 PWs)   bands (ev):

   -10.5848  -1.5698  -1.3481  -1.3481  -0.1197   0.6144   6.9348   6.9348
     8.5407   9.6227   9.6730  10.3526  10.3526  10.9485  17.4012  17.4012
    18.4399  19.0641  20.5926  24.9708  26.3178  27.9575  27.9575  28.2662
    28.2662  28.7724  30.9042  33.2547  35.0642  35.7583

          k = 0.0000 0.6000 0.0000 (  1620 PWs)   bands (ev):

   -10.0449  -2.6418  -1.7642  -1.7642  -0.5342  -0.1164   7.8406   7.8406
     9.0900  10.9202  11.0399  11.4036  11.4036  11.4796  16.0867  16.0867
    17.0221  19.5762  21.3316  24.7973  25.3804  25.8025  25.8025  26.7980
    28.7137  28.7137  30.4415  32.8395  35.1965  35.1965

          k = 0.0000 0.7000 0.0000 (  1632 PWs)   bands (ev):

    -9.4093  -3.7731  -2.0890  -2.0890  -0.8563  -0.6156   8.7125   8.7125
     9.7388  11.9542  12.1874  12.6114  12.6320  12.6320  14.8921  14.8921
    15.6943  18.7182  23.0356  23.5763  23.6802  23.6802  24.4664  26.4085
    29.2327  29.2327  29.9064  32.7885  34.2794  34.2794

          k = 0.0000 0.8000 0.0000 (  1624 PWs)   bands (ev):

    -8.6796  -4.8910  -2.3216  -2.3216  -1.0822  -0.9479   9.5839   9.5839
    10.4866  12.5699  13.2538  13.3248  13.3248  14.1628  14.4599  14.4902
    14.4902  18.1872  21.2222  21.6347  21.6347  22.6376  25.5047  27.4835
    29.2150  29.7988  29.7988  32.9509  33.4086  33.4086

          k = 0.0000 0.9000 0.0000 (  1608 PWs)   bands (ev):

    -7.8580  -5.9559  -2.4613  -2.4613  -1.2086  -1.1479  10.4847  10.4847
    11.3333  12.4278  12.4278  13.1705  13.3207  13.7900  15.7955  15.8742
    15.8742  18.2359  19.5137  19.7123  19.7123  20.9164  26.7340  28.4398
    29.3672  30.3520  30.3520  32.6662  32.6662  32.8027

          k = 0.0000 1.0000 0.0000 (  1604 PWs)   bands (ev):

    -6.9482  -6.9482  -2.5079  -2.5079  -1.2321  -1.2321  11.4203  11.4203
    11.4457  11.4457  12.2782  12.2782  13.6612  13.6612  17.0782  17.0782
    17.4518  17.4518  18.3758  18.3758  19.4938  19.4938  27.6243  27.6243
    30.6458  30.6458  31.4529  31.4529  32.3083  32.3083

          k = 0.0000 0.9750 0.0750 (  1618 PWs)   bands (ev):

    -7.1588  -6.6836  -2.7990  -2.7948  -0.8886  -0.8773  10.4148  10.8890
    11.2050  11.6923  12.4892  12.9558  13.8890  14.1055  16.3167  16.6835
    17.6531  17.7002  18.4559  18.8083  19.5196  20.0445  27.0466  27.4471
    30.6412  30.6635  30.8611  31.4217  32.5150  32.9443

          k = 0.0000 0.9500 0.1500 (  1622 PWs)   bands (ev):

    -7.3132  -6.3694  -3.3193  -3.2991  -0.1975  -0.1812   9.0379   9.9678
    11.0048  11.9727  12.5914  13.3420  14.4969  15.0843  15.4587  16.2162
    17.5565  17.9487  18.6768  19.4405  20.3208  20.9324  26.0069  26.7721
    29.8643  29.8942  30.8802  31.7777  32.8717  33.0735

          k =-0.0000 0.9250 0.2250 (  1622 PWs)   bands (ev):

    -7.4110  -6.0182  -3.8432  -3.7872   0.6138   0.6316   7.6454   9.0269
    10.8201  12.2015  12.6544  13.4690  14.1543  15.4513  15.7619  16.4054
    17.6681  18.1155  19.1850  19.9418  21.5934  21.9502  24.7940  25.9280
    28.8237  29.1193  30.4900  31.1417  31.4772  32.7091

          k =-0.0000 0.9000 0.3000 (  1623 PWs)   bands (ev):

    -7.4525  -5.6695  -4.3248  -4.1757   1.4970   1.5087   6.2878   8.1147
    10.6278  12.1730  12.8980  13.3616  13.4468  15.3978  16.5573  16.7345
    18.2815  18.3376  19.9461  20.5705  22.9651  22.9808  23.5276  25.0841
    27.7380  28.4244  29.4593  29.6036  30.4625  33.0945

          k = 0.0000 0.8750 0.3750 (  1614 PWs)   bands (ev):

    -7.4390  -5.4598  -4.7501  -4.3171   2.4020   2.4330   5.0159   7.2519
    10.3927  11.7649  12.9757  13.0956  13.3821  15.5882  16.8303  17.2407
    18.5509  19.1586  20.9147  21.3044  22.2694  23.7597  23.8755  24.9277
    26.7288  27.5274  28.1796  28.3730  29.9649  33.1663

          k = 0.0000 0.8500 0.4500 (  1612 PWs)   bands (ev):

    -7.3734  -5.5456  -5.1116  -4.0526   2.9492   3.3978   4.1955   6.4627
    10.0789  11.0877  12.8560  12.9432  13.8368  15.9323  16.9269  17.7504
    18.9600  19.8221  20.9610  21.7937  22.1469  23.2305  24.3029  25.7475
    26.2711  26.3721  27.2081  28.1118  29.6606  32.9384

          k = 0.0000 0.8250 0.5250 (  1611 PWs)   bands (ev):

    -7.2615  -5.7715  -5.4012  -3.5394   2.1572   4.2914   4.8231   5.8445
     9.6762  10.3611  12.7494  13.0410  14.3579  16.2979  17.1132  18.1469
    19.3351  19.9036  20.2172  21.5559  22.7188  23.3800  23.8056  25.1853
    25.4320  26.6517  28.2768  28.2928  29.7088  32.5246

          k =-0.0000 0.8000 0.6000 (  1614 PWs)   bands (ev):

    -7.1147  -6.0009  -5.6065  -2.9239   1.0529   4.5066   5.8779   5.9974
     9.2129   9.6655  12.7942  13.2165  14.9164  16.5549  17.4474  18.4346
    18.5421  20.0230  20.1359  21.0294  22.2738  22.5241  24.5800  24.6563
    25.1700  27.3875  28.3752  30.0589  30.3967  31.9394

          k =-0.0000 0.7750 0.6750 (  1621 PWs)   bands (ev):

    -6.9549  -6.1944  -5.7050  -2.2877   0.0150   4.0125   6.9279   7.0005
     8.7449   9.0437  12.9741  13.4491  15.4842  16.6419  17.3459  17.7915
    18.8606  19.4092  20.2807  20.4885  21.4652  22.2619  24.1553  24.4196
    26.4279  28.3509  28.4621  31.1606  31.4581  31.9222

          k = 0.0000 0.7500 0.7500 (  1624 PWs)   bands (ev):

    -6.8149  -6.3407  -5.6637  -1.9390  -0.6249   3.4440   7.7686   7.8965
     8.5250   8.7586  13.2715  13.7184  15.7898  16.4588  16.5539  17.6138
    18.9047  19.2430  19.5944  20.1107  21.5062  22.2603  24.0415  24.0962
    27.6633  28.5936  29.1801  30.6589  32.2222  32.8481

          k = 0.0000 0.7250 0.7750 (  1616 PWs)   bands (ev):

    -6.8089  -6.3359  -5.6577  -2.0853  -0.4669   3.4482   7.5897   7.7025
     8.7067   8.9624  13.2832  13.7186  15.6054  16.3948  16.7520  17.5762
    18.7664  19.1724  19.7725  20.2533  21.5165  22.2739  24.0385  24.0879
    27.5170  28.7436  28.9846  30.8297  31.8999  32.8224

          k = 0.0000 0.7000 0.8000 (  1621 PWs)   bands (ev):

    -6.7907  -6.3216  -5.6396  -2.4089  -0.1086   3.4607   7.2500   7.3331
     9.0544   9.3607  13.3182  13.7178  15.2672  16.2250  17.1310  17.4437
    18.4647  19.1594  20.1039  20.5630  21.5539  22.3149  24.0286  24.0611
    27.2151  28.5664  29.0524  31.1565  31.3186  32.0805

          k = 0.0000 0.6750 0.8250 (  1620 PWs)   bands (ev):

    -6.7604  -6.2984  -5.6094  -2.7890   0.3296   3.4808   6.8796   6.9312
     9.4370   9.8097  13.3761  13.7107  14.9165  15.9908  17.2135  17.5365
    18.1338  19.2757  20.4755  20.8948  21.6465  22.3838  24.0097  24.0100
    26.8759  28.1020  29.3769  30.7181  31.0660  31.6687

          k = 0.0000 0.6500 0.8500 (  1616 PWs)   bands (ev):

    -6.7181  -6.2671  -5.5671  -3.1818   0.8041   3.5076   6.5072   6.5279
     9.8241  10.2763  13.4556  13.6838  14.5960  15.7251  16.9221  17.6368
    18.1195  19.4801  20.8535  21.1410  21.8567  22.4781  23.9278  23.9798
    26.5358  27.6696  29.5193  30.2425  30.3157  31.9047

          k = 0.0000 0.6250 0.8750 (  1616 PWs)   bands (ev):

    -6.6636  -6.2294  -5.5128  -3.5709   1.2987   3.5391   6.1329   6.1428
    10.2037  10.7461  13.5525  13.6092  14.3453  15.4504  16.6066  17.3151
    18.5457  19.7292  21.2167  21.2640  22.1989  22.5804  23.8238  23.9364
    26.2096  27.3144  29.1560  29.3614  30.4472  32.1179

          k = 0.0000 0.6000 0.9000 (  1613 PWs)   bands (ev):

    -6.5970  -6.1882  -5.4465  -3.9472   1.8047   3.5721   5.7521   5.7933
    10.5681  11.2027  13.4625  13.6554  14.2025  15.1851  16.2940  16.9703
    19.0170  19.9953  21.3183  21.5483  22.5895  22.6264  23.7587  23.8885
    25.9074  27.0655  28.4772  28.6291  30.7813  32.2676

          k = 0.0000 0.5750 0.9250 (  1615 PWs)   bands (ev):

    -6.5185  -6.1492  -5.3682  -4.3022   2.3136   3.6004   5.3924   5.4665
    10.9104  11.6108  13.2880  13.7387  14.1545  14.9487  16.0114  16.6400
    19.4972  20.2607  21.3420  21.8357  22.5051  22.9158  23.8522  23.8914
    25.6383  26.9324  27.5998  28.1283  31.1383  32.3550

          k = 0.0000 0.5500 0.9500 (  1615 PWs)   bands (ev):

    -6.4278  -6.1238  -5.2780  -4.6231   2.8097   3.6133   5.0685   5.1745
    11.2250  11.8845  13.2046  13.7578  14.1625  14.7565  15.8016  16.3351
    19.9725  20.5095  21.3486  22.0048  22.2810  23.0120  24.0837  24.1297
    25.4101  26.7188  26.9233  27.6986  31.4838  32.3736

          k = 0.0000 0.5250 0.9750 (  1615 PWs)   bands (ev):

    -6.3252  -6.1335  -5.1758  -4.8873   3.2506   3.5924   4.8227   4.9364
    11.5068  11.9147  13.3199  13.6787  14.2195  14.5842  15.7322  16.0659
    20.4147  20.7111  21.3523  21.7110  22.4112  22.8705  24.4605  24.5156
    25.2348  25.8788  26.9858  27.3616  31.8052  32.2998

          k = 0.0000 0.5000 1.0000 (  1628 PWs)   bands (ev):

    -6.2107  -6.2107  -5.0617  -5.0617   3.5137   3.5137   4.7766   4.7766
    11.7494  11.7494  13.5251  13.5251  14.3750  14.3750  15.8438  15.8438
    20.7278  20.7278  21.4138  21.4138  22.6386  22.6386  24.8097  24.8097
    25.2032  25.2032  27.1300  27.1300  32.0972  32.0972

          k = 0.0000 0.4500 0.9000 (  1616 PWs)   bands (ev):

    -6.9889  -5.7180  -5.1311  -4.4755   3.0784   3.3252   4.4092   5.9819
    10.6646  11.7705  13.2575  13.3121  13.4650  15.6229  16.0520  17.1364
    19.3451  20.3428  21.2858  21.6064  22.6904  22.8759  23.7548  25.5266
    25.9219  26.1223  27.0170  27.9604  30.3547  32.8479

          k =-0.0000 0.4000 0.8000 (  1616 PWs)   bands (ev):

    -7.9380  -5.1857  -4.7977  -3.6994   2.6962   2.8569   4.2131   7.6245
     9.5655  10.5733  12.3396  12.3976  14.2249  16.0985  17.1338  17.9164
    18.8868  19.1495  20.7761  21.4159  21.8645  24.1171  24.9184  25.8786
    26.7825  26.9045  27.8172  28.0985  29.9025  33.1732

          k =-0.0000 0.3500 0.7000 (  1618 PWs)   bands (ev):

    -8.8250  -4.5823  -4.2920  -2.7743   2.3957   2.4579   4.1666   8.1930
     9.3148   9.6056  11.4789  11.5125  15.2261  15.3424  15.6832  17.8243
    18.2493  20.4903  21.4343  21.8709  22.1155  24.3961  25.1637  26.4276
    26.6742  27.9868  28.9777  29.5718  31.2762  33.1077

          k =-0.0000 0.3000 0.6000 (  1609 PWs)   bands (ev):

    -9.6093  -3.8886  -3.6546  -1.7401   2.1637   2.2103   4.2421   7.2296
     8.1462  10.0119  10.7186  12.0470  13.4650  13.9983  16.0345  16.8244
    18.5883  21.2719  22.3690  22.3763  22.7079  24.1324  25.7751  27.6411
    28.0525  29.3395  30.4376  31.1477  32.5628  32.6728

          k = 0.0000 0.2500 0.5000 (  1610 PWs)   bands (ev):

   -10.2797  -3.0963  -2.8988  -0.6543   1.9820   2.1918   4.3987   6.2541
     7.1198   9.3344  10.0053  11.6682  12.1429  14.0452  14.7250  17.6938
    19.3596  19.6590  22.1557  22.7284  24.5415  26.5771  26.6652  28.9442
    29.6061  30.6911  31.1834  31.9085  32.4055  32.7283

          k = 0.0000 0.2000 0.4000 (  1613 PWs)   bands (ev):

   -10.8315  -2.2051  -2.0342   0.3454   1.9144   2.4676   4.5278   5.3424
     6.3365   8.5764   9.2585  10.1031  10.5218  13.2278  16.1964  17.0973
    18.9780  20.8550  22.4588  23.1488  25.5387  28.3209  29.0684  29.5048
    30.1294  31.2796  31.5357  32.4221  33.8154  33.8437

          k = 0.0000 0.1500 0.3000 (  1607 PWs)   bands (ev):

   -11.2623  -1.2212  -1.0736   1.0246   1.9590   3.2446   4.3548   4.5047
     6.0391   7.6392   8.0712   9.2411   9.3079  11.8451  14.9559  18.4542
    20.3538  22.1317  22.8631  23.6532  26.0993  28.5518  28.9436  30.5045
    31.5059  31.6507  32.3478  33.0924  33.5541  34.0368

          k =-0.0000 0.1000 0.2000 (  1600 PWs)   bands (ev):

   -11.5709  -0.1614  -0.0417   1.3972   2.1061   3.7349   3.7732   4.4694
     6.0803   6.4586   6.9990   8.6499   8.7917  10.5622  13.0528  20.7364
    21.7768  23.3053  23.4519  24.2454  26.4949  27.7197  27.8873  30.0615
    30.4743  31.8814  33.0747  33.7506  34.5967  35.0249

          k =-0.0000 0.0500 0.1000 (  1623 PWs)   bands (ev):

   -11.7564   0.9268   0.9999   1.6268   2.3151   3.0020   3.0731   5.0865
     5.3874   6.2667   7.0493   8.3419   8.4469   9.2939  11.6345  22.8319
    23.1264  23.6930  24.7408  24.9413  26.6187  26.9019  26.9265  29.0154
    29.1036  29.8074  33.6882  35.2289  35.3177  35.7557

          k = 0.0000 0.0000 0.0000 (  1639 PWs)   bands (ev):

   -11.8182   1.7171   1.7171   1.7171   2.4381   2.4381   2.4381   4.8326
     4.9163   7.2910   7.2910   8.2489   8.2489   8.2489  11.0993  23.8604
    23.8604  23.8604  25.5838  25.5838  26.3679  26.3679  26.3679  28.5584
    28.5584  28.5584  33.6728  35.8113  35.8113  35.8113

     Writing output data file Si.save

     init_run     :      0.12s CPU      0.13s WALL (       1 calls)
     electrons    :     59.86s CPU     61.94s WALL (       1 calls)

     Called by init_run:
     wfcinit      :      0.00s CPU      0.00s WALL (       1 calls)
     potinit      :      0.04s CPU      0.04s WALL (       1 calls)

     Called by electrons:
     c_bands      :     59.86s CPU     61.94s WALL (       1 calls)
     v_of_rho     :      0.03s CPU      0.03s WALL (       1 calls)

     Called by c_bands:
     init_us_2    :      0.06s CPU      0.06s WALL (      51 calls)
     cegterg      :     55.95s CPU     57.88s WALL (      73 calls)

     Called by *egterg:
     h_psi        :     38.86s CPU     40.28s WALL (    1192 calls)
     g_psi        :      0.11s CPU      0.12s WALL (    1068 calls)
     cdiaghg      :      3.63s CPU      3.80s WALL (    1119 calls)

     Called by h_psi:
     add_vuspsi   :      1.11s CPU      1.13s WALL (    1192 calls)

     General routines
     calbec       :      1.22s CPU      1.26s WALL (    1192 calls)
     fft          :      0.01s CPU      0.02s WALL (      10 calls)
     fftw         :     34.59s CPU     35.86s WALL (   39740 calls)
     davcio       :      0.01s CPU      0.01s WALL (      51 calls)

     Parallel routines
     fft_scatter  :      0.84s CPU      0.86s WALL (   39750 calls)

     PWSCF        :  1m 0.96s CPU     1m 3.21s WALL


   This run was terminated on:  22:21: 6  13Feb2023            

=------------------------------------------------------------------------------=
   JOB DONE.
=------------------------------------------------------------------------------=
