
     Program PWSCF v.5.1 starts on 13Feb2023 at 22:18: 7 

     This program is part of the open-source Quantum ESPRESSO suite
     for quantum simulation of materials; please cite
         "P. Giannozzi et al., J. Phys.:Condens. Matter 21 395502 (2009);
          URL http://www.quantum-espresso.org", 
     in publications or presentations arising from this work. More details at
     http://www.quantum-espresso.org/quote

     Parallel version (MPI), running on     1 processors
     Waiting for input...
     Reading input from standard input

     Current dimensions of program PWSCF are:
     Max number of different atomic species (ntypx) = 10
     Max number of k-points (npk) =  40000
     Max angular momentum in pseudopotentials (lmaxx) =  3

     Atomic positions and unit cell read from directory:
     ./out/Si.save/

               file Si.pbe-mt_fhi.UPF: wavefunction(s)  4f renormalized

     Subspace diagonalization in iterative solution of the eigenvalue problem:
     a serial algorithm will be used


     G-vector sticks info
     --------------------
     sticks:   dense  smooth     PW     G-vecs:    dense   smooth      PW
     Sum         733     733    223                12939    12939    2229



     bravais-lattice index     =            2
     lattice parameter (alat)  =      10.2623  a.u.
     unit-cell volume          =     270.1967 (a.u.)^3
     number of atoms/cell      =            2
     number of atomic types    =            1
     number of electrons       =        48.00
     number of Kohn-Sham states=           30
     kinetic-energy cutoff     =      50.0000  Ry
     charge density cutoff     =     200.0000  Ry
     Exchange-correlation      = PBE ( 1  4  3  4 0)

     celldm(1)=  10.262347  celldm(2)=   0.000000  celldm(3)=   0.000000
     celldm(4)=   0.000000  celldm(5)=   0.000000  celldm(6)=   0.000000

     crystal axes: (cart. coord. in units of alat)
               a(1) = (  -0.500000   0.000000   0.500000 )  
               a(2) = (   0.000000   0.500000   0.500000 )  
               a(3) = (  -0.500000   0.500000   0.000000 )  

     reciprocal axes: (cart. coord. in units 2 pi/alat)
               b(1) = ( -1.000000 -1.000000  1.000000 )  
               b(2) = (  1.000000  1.000000  1.000000 )  
               b(3) = ( -1.000000  1.000000 -1.000000 )  


     PseudoPot. # 1 for Si read from file:
     /home/acedemo/psudo/Si.pbe-mt_fhi.UPF
     MD5 check sum: 259057c2adf9952f9ced37ae3d9e311d
     Pseudo is Norm-conserving, Zval =  4.0
     Generated using FHI98PP, converted with fhi2upf.x v.5.0.2
     Using radial grid of  495 points,  3 beta functions with: 
                l(1) =   0
                l(2) =   1
                l(3) =   3

     atomic species   valence    mass     pseudopotential
        Si             4.00    28.08550     Si( 1.00)

     48 Sym. Ops., with inversion, found (24 have fractional translation)



   Cartesian axes

     site n.     atom                  positions (alat units)
         1           Si  tau(   1) = (   0.0000000   0.0000000   0.0000000  )
         2           Si  tau(   2) = (   0.2500000   0.2500000   0.2500000  )

     number of k points=    72 (tetrahedron method)
                       cart. coord. in units 2pi/alat
        k(    1) = (   0.0000000   0.0000000   0.0000000), wk =   0.0011574
        k(    2) = (  -0.0833333   0.0833333  -0.0833333), wk =   0.0092593
        k(    3) = (  -0.1666667   0.1666667  -0.1666667), wk =   0.0092593
        k(    4) = (  -0.2500000   0.2500000  -0.2500000), wk =   0.0092593
        k(    5) = (  -0.3333333   0.3333333  -0.3333333), wk =   0.0092593
        k(    6) = (  -0.4166667   0.4166667  -0.4166667), wk =   0.0092593
        k(    7) = (   0.5000000  -0.5000000   0.5000000), wk =   0.0046296
        k(    8) = (   0.0000000   0.1666667   0.0000000), wk =   0.0069444
        k(    9) = (  -0.0833333   0.2500000  -0.0833333), wk =   0.0277778
        k(   10) = (  -0.1666667   0.3333333  -0.1666667), wk =   0.0277778
        k(   11) = (  -0.2500000   0.4166667  -0.2500000), wk =   0.0277778
        k(   12) = (  -0.3333333   0.5000000  -0.3333333), wk =   0.0277778
        k(   13) = (   0.5833333  -0.4166667   0.5833333), wk =   0.0277778
        k(   14) = (   0.5000000  -0.3333333   0.5000000), wk =   0.0277778
        k(   15) = (   0.4166667  -0.2500000   0.4166667), wk =   0.0277778
        k(   16) = (   0.3333333  -0.1666667   0.3333333), wk =   0.0277778
        k(   17) = (   0.2500000  -0.0833333   0.2500000), wk =   0.0277778
        k(   18) = (   0.1666667  -0.0000000   0.1666667), wk =   0.0138889
        k(   19) = (   0.0000000   0.3333333   0.0000000), wk =   0.0069444
        k(   20) = (  -0.0833333   0.4166667  -0.0833333), wk =   0.0277778
        k(   21) = (  -0.1666667   0.5000000  -0.1666667), wk =   0.0277778
        k(   22) = (  -0.2500000   0.5833333  -0.2500000), wk =   0.0277778
        k(   23) = (   0.6666667  -0.3333333   0.6666667), wk =   0.0277778
        k(   24) = (   0.5833333  -0.2500000   0.5833333), wk =   0.0277778
        k(   25) = (   0.5000000  -0.1666667   0.5000000), wk =   0.0277778
        k(   26) = (   0.4166667  -0.0833333   0.4166667), wk =   0.0277778
        k(   27) = (   0.3333333   0.0000000   0.3333333), wk =   0.0138889
        k(   28) = (   0.0000000   0.5000000   0.0000000), wk =   0.0069444
        k(   29) = (  -0.0833333   0.5833333  -0.0833333), wk =   0.0277778
        k(   30) = (  -0.1666667   0.6666667  -0.1666667), wk =   0.0277778
        k(   31) = (   0.7500000  -0.2500000   0.7500000), wk =   0.0277778
        k(   32) = (   0.6666667  -0.1666667   0.6666667), wk =   0.0277778
        k(   33) = (   0.5833333  -0.0833333   0.5833333), wk =   0.0277778
        k(   34) = (   0.5000000   0.0000000   0.5000000), wk =   0.0138889
        k(   35) = (   0.0000000   0.6666667   0.0000000), wk =   0.0069444
        k(   36) = (  -0.0833333   0.7500000  -0.0833333), wk =   0.0277778
        k(   37) = (   0.8333333  -0.1666667   0.8333333), wk =   0.0277778
        k(   38) = (   0.7500000  -0.0833333   0.7500000), wk =   0.0277778
        k(   39) = (   0.6666667   0.0000000   0.6666667), wk =   0.0138889
        k(   40) = (   0.0000000   0.8333333   0.0000000), wk =   0.0069444
        k(   41) = (   0.9166667  -0.0833333   0.9166667), wk =   0.0277778
        k(   42) = (   0.8333333   0.0000000   0.8333333), wk =   0.0138889
        k(   43) = (   0.0000000  -1.0000000   0.0000000), wk =   0.0034722
        k(   44) = (  -0.1666667   0.3333333   0.0000000), wk =   0.0277778
        k(   45) = (  -0.2500000   0.4166667  -0.0833333), wk =   0.0555556
        k(   46) = (  -0.3333333   0.5000000  -0.1666667), wk =   0.0555556
        k(   47) = (   0.5833333  -0.4166667   0.7500000), wk =   0.0555556
        k(   48) = (   0.5000000  -0.3333333   0.6666667), wk =   0.0277778
        k(   49) = (  -0.1666667   0.5000000   0.0000000), wk =   0.0277778
        k(   50) = (  -0.2500000   0.5833333  -0.0833333), wk =   0.0555556
        k(   51) = (   0.6666667  -0.3333333   0.8333333), wk =   0.0555556
        k(   52) = (   0.5833333  -0.2500000   0.7500000), wk =   0.0555556
        k(   53) = (   0.5000000  -0.1666667   0.6666667), wk =   0.0555556
        k(   54) = (   0.4166667  -0.0833333   0.5833333), wk =   0.0555556
        k(   55) = (   0.3333333   0.0000000   0.5000000), wk =   0.0277778
        k(   56) = (  -0.1666667   0.6666667  -0.0000000), wk =   0.0277778
        k(   57) = (   0.7500000  -0.2500000   0.9166667), wk =   0.0555556
        k(   58) = (   0.6666667  -0.1666667   0.8333333), wk =   0.0555556
        k(   59) = (   0.5833333  -0.0833333   0.7500000), wk =   0.0555556
        k(   60) = (   0.5000000   0.0000000   0.6666667), wk =   0.0277778
        k(   61) = (   0.8333333  -0.1666667   1.0000000), wk =   0.0277778
        k(   62) = (   0.7500000  -0.0833333   0.9166667), wk =   0.0555556
        k(   63) = (   0.6666667   0.0000000   0.8333333), wk =   0.0277778
        k(   64) = (  -0.1666667  -1.0000000   0.0000000), wk =   0.0138889
        k(   65) = (   0.6666667  -0.3333333   1.0000000), wk =   0.0277778
        k(   66) = (   0.5833333  -0.2500000   0.9166667), wk =   0.0555556
        k(   67) = (   0.5000000  -0.1666667   0.8333333), wk =   0.0277778
        k(   68) = (   0.6666667  -0.1666667   1.0000000), wk =   0.0277778
        k(   69) = (   0.5833333  -0.0833333   0.9166667), wk =   0.0555556
        k(   70) = (   0.5000000   0.0000000   0.8333333), wk =   0.0277778
        k(   71) = (  -0.3333333  -1.0000000   0.0000000), wk =   0.0138889
        k(   72) = (  -0.5000000  -1.0000000   0.0000000), wk =   0.0069444

     Dense  grid:    12939 G-vectors     FFT dimensions: (  36,  36,  36)

     Largest allocated arrays     est. size (Mb)     dimensions
        Kohn-Sham Wavefunctions         0.75 Mb     (    1639,   30)
        NL pseudopotentials             0.55 Mb     (    1639,   22)
        Each V/rho on FFT grid          0.71 Mb     (   46656)
        Each G-vector array             0.10 Mb     (   12939)
        G-vector shells                 0.00 Mb     (     180)
     Largest temporary arrays     est. size (Mb)     dimensions
        Auxiliary wavefunctions         3.00 Mb     (    1639,  120)
        Each subspace H/S matrix        0.22 Mb     (     120,  120)
        Each <psi_i|beta_j> matrix      0.01 Mb     (      22,   30)

     The potential is recalculated from file :
     ./out/Si.save/charge-density.dat

     Starting wfc are   32 randomized atomic wfcs

     Band Structure Calculation
     Davidson diagonalization with overlap

     ethr =  3.33E-12,  avg # of iterations = 22.3

     total cpu time spent up to now is       98.3 secs

     End of band structure calculation

          k = 0.0000 0.0000 0.0000 (  1639 PWs)   bands (ev):

   -11.8182   1.7171   1.7171   1.7171   2.4381   2.4381   2.4381   4.8326
     4.9163   7.2910   7.2910   8.2489   8.2489   8.2489  11.0993  23.8604
    23.8604  23.8604  25.5838  25.5838  26.3679  26.3679  26.3679  28.5584
    28.5584  28.5584  33.6728  35.8113  35.8113  35.8113

          k =-0.0833 0.0833-0.0833 (  1612 PWs)   bands (ev):

   -11.7151   0.2312   1.3175   1.3175   2.8171   2.9543   2.9543   5.2567
     5.7232   6.3370   6.3370   7.9053   9.4852   9.4852  11.8682  22.6437
    22.6437  22.7708  25.0279  25.0279  26.7544  26.7544  27.1350  28.6600
    30.1953  30.1953  33.5303  35.1013  35.3784  35.3784

          k =-0.1667 0.1667-0.1667 (  1591 PWs)   bands (ev):

   -11.4064  -1.7035   0.8391   0.8391   2.6144   3.5638   3.5638   5.5670
     5.5670   5.6565   6.6402   8.7539  11.3185  11.3185  13.4806  20.1567
    20.1567  20.8544  25.0974  25.0974  27.0468  27.0468  28.0986  28.9631
    31.6082  32.5529  32.5529  33.9720  33.9720  34.7843

          k =-0.2500 0.2500-0.2500 (  1618 PWs)   bands (ev):

   -10.8937  -3.5467   0.4995   0.4995   2.3782   3.3443   3.3443   5.0597
     6.0459   6.0459   7.6492  11.1437  13.3806  13.3806  15.4565  17.6103
    17.6103  18.8326  25.3681  25.3681  27.4145  27.4145  27.9654  29.4611
    29.7502  30.4568  30.4568  33.1414  33.1414  34.0249

          k =-0.3333 0.3333-0.3333 (  1616 PWs)   bands (ev):

   -10.1816  -5.2274   0.3031   0.3031   2.2558   2.7450   2.7450   4.3418
     7.3407   7.3407   8.9526  13.7487  15.0506  15.0506  15.7914  15.7914
    16.9137  17.7423  25.4520  25.4520  25.6055  27.3504  27.3504  28.2324
    28.2324  28.9461  30.1341  32.0134  32.0134  32.3150

          k =-0.4167 0.4167-0.4167 (  1616 PWs)   bands (ev):

    -9.2877  -6.7076   0.2205   0.2205   2.2430   2.2924   2.2924   3.8137
     8.9520   8.9520  10.3210  12.9128  12.9128  14.6315  17.0635  18.1320
    18.1320  20.1165  22.9805  23.6860  23.6860  26.3767  26.7049  26.7049
    28.6235  28.6235  30.9049  31.0478  31.0478  31.9658

          k = 0.5000-0.5000 0.5000 (  1622 PWs)   bands (ev):

    -8.5022  -7.6893   0.2026   0.2026   2.1268   2.1268   2.2616   3.6108
    10.5154  10.5154  11.1475  11.1475  11.1475  13.8195  19.1415  20.1849
    20.1849  20.2901  21.5550  21.5550  22.8449  23.9321  26.7803  26.7803
    28.9561  28.9561  30.5800  30.5800  31.3748  31.5936

          k = 0.0000 0.1667 0.0000 (  1615 PWs)   bands (ev):

   -11.6808   0.6650   0.6650   1.0989   1.7803   3.6785   3.6785   4.7212
     5.8191   6.0543   7.4300   8.4547   8.4547   9.5497  12.3882  22.2166
    22.2166  23.6735  23.9848  24.2827  27.0748  27.0748  27.1668  29.8172
    29.8172  30.6004  33.6574  34.5568  34.5568  35.8687

          k =-0.0833 0.2500-0.0833 (  1599 PWs)   bands (ev):

   -11.4406  -0.9983   0.1315   0.8047   2.0456   3.7397   3.9625   4.4201
     6.6752   6.7873   6.9162   8.4615   9.8201  10.8642  13.9414  20.0835
    20.4316  22.8444  23.2805  24.0216  26.8183  27.3812  28.6048  30.3189
    31.2378  32.4063  32.8249  33.3268  33.5830  34.4125

          k =-0.1667 0.3333-0.1667 (  1610 PWs)   bands (ev):

   -10.9957  -2.8681  -0.2328   0.3733   2.1237   3.6432   3.8807   4.4939
     6.3854   6.8440   7.8954  10.3786  11.7771  12.8157  15.8471  17.5059
    18.1791  20.7956  23.5312  24.2717  26.7238  27.7654  29.1285  29.7754
    30.6471  31.1071  31.8016  32.4692  32.5269  33.9627

          k =-0.2500 0.4167-0.2500 (  1606 PWs)   bands (ev):

   -10.3496  -4.6022  -0.4186  -0.0143   1.6284   3.4371   3.8792   4.8068
     5.9170   7.9638   9.1771  12.9029  13.9248  15.0463  15.0750  15.9725
    17.9086  18.7734  23.9245  24.6905  25.3921  27.4567  28.2666  28.2808
    29.3171  30.1478  30.3389  31.3778  31.4746  32.9248

          k =-0.3333 0.5000-0.3333 (  1616 PWs)   bands (ev):

    -9.5123  -6.1526  -0.4275  -0.3890   1.3453   3.2538   3.2939   4.8541
     6.8762   9.4835  10.5499  12.6918  13.6431  15.5109  16.4051  16.8178
    17.6874  20.3330  22.7798  24.1696  24.5026  25.4261  26.5231  27.6609
    28.4889  28.8744  29.2733  30.2188  31.9737  32.1621

          k = 0.5833-0.4167 0.5833 (  1615 PWs)   bands (ev):

    -8.5709  -7.4200  -0.7341  -0.2693   1.3865   2.7947   3.1652   4.7252
     8.5136  10.4301  11.1643  11.4082  12.5067  14.7634  18.3283  18.9387
    19.8025  20.7799  21.3977  22.8408  23.1275  24.8059  25.3271  26.0850
    28.3362  28.5457  29.5325  29.5569  31.7148  31.8988

          k = 0.5000-0.3333 0.5000 (  1616 PWs)   bands (ev):

    -8.8741  -7.0513  -0.9826   0.0349   1.7070   2.5544   3.0395   4.8947
     8.5964   9.2470  10.8299  12.1140  13.3063  14.8264  17.0858  18.4957
    19.9369  20.9621  22.0363  22.2869  23.4671  25.0636  25.7976  26.2916
    28.5210  28.6990  29.0975  29.8109  31.7120  32.2632

          k = 0.4167-0.2500 0.4167 (  1611 PWs)   bands (ev):

    -9.8113  -5.6581  -1.0848   0.4455   2.2551   2.5685   2.9853   5.2816
     6.9001   7.8764  10.6216  12.8286  14.4669  15.3145  15.4546  16.9936
    17.6151  19.1329  24.0483  24.1202  25.0277  25.3102  27.3916  27.7093
    28.5584  29.5433  29.7176  30.1240  32.1240  32.5851

          k = 0.3333-0.1667 0.3333 (  1605 PWs)   bands (ev):

   -10.5871  -4.0418  -1.0169   0.9085   2.8385   2.9257   3.1140   5.4475
     5.4759   6.9631   9.2137  11.9528  12.8221  15.2149  15.2309  16.8008
    17.8855  18.7953  23.8112  24.4782  26.8056  27.4879  27.8308  28.7699
    30.2261  30.6442  30.7669  30.9726  32.0770  33.6292

          k = 0.2500-0.0833 0.2500 (  1600 PWs)   bands (ev):

   -11.1667  -2.2542  -0.7688   1.3798   3.0707   3.1908   3.7835   4.6658
     4.7849   7.2622   7.9692   9.6019  10.5999  13.0950  14.7581  17.6847
    20.3345  20.7207  23.4358  24.2659  26.8801  27.5382  29.4507  30.2949
    30.4587  31.7542  32.0726  32.7475  33.3793  34.2583

          k = 0.1667-0.0000 0.1667 (  1592 PWs)   bands (ev):

   -11.5435  -0.4148  -0.2814   1.7189   2.7031   3.2609   3.5334   5.0945
     5.1665   6.6342   7.0757   8.7184   8.8587  11.1679  12.9943  20.2437
    22.2696  22.4209  23.6043  24.4644  26.6696  27.2493  28.3654  30.0744
    30.4783  31.9700  33.0289  33.6662  34.8605  35.1550

          k = 0.0000 0.3333 0.0000 (  1607 PWs)   bands (ev):

   -11.2690  -0.4564  -0.4564  -0.0849   0.7566   2.4691   5.3194   5.3194
     7.5697   7.5825   7.8466   9.1158   9.1158  10.2464  15.4595  19.7620
    19.7620  20.9852  22.4403  24.3573  27.5031  27.6340  27.6340  31.4245
    31.4245  32.3532  32.3903  32.8525  32.8525  33.4395

          k =-0.0833 0.4167-0.0833 (  1616 PWs)   bands (ev):

   -10.8926  -2.0458  -0.8734  -0.4504   0.8776   1.8748   5.5736   5.7988
     7.8237   8.0141   8.6514   9.9524  10.5362  11.6537  17.2999  17.5542
    18.0475  20.7864  21.9636  23.6106  26.5779  27.9694  28.7748  29.4388
    29.8250  30.6901  31.9573  33.1471  33.2940  34.5521

          k =-0.1667 0.5000-0.1667 (  1611 PWs)   bands (ev):

   -10.3138  -3.7993  -1.1066  -1.0519   0.5689   2.7968   5.3439   5.4047
     7.4051   8.7199   9.8869  12.1705  12.5636  13.8765  15.0611  15.9640
    19.3143  21.1644  21.1842  22.8064  24.8473  27.5537  28.2511  28.4460
    28.4634  29.7454  31.5256  31.5842  32.4357  33.8241

          k =-0.2500 0.5833-0.2500 (  1610 PWs)   bands (ev):

    -9.5391  -5.4026  -1.6674  -1.1529   0.3753   4.0725   4.6787   5.3080
     6.9527  10.1539  11.1795  12.6431  13.6208  14.9290  14.9339  16.4765
    19.1918  21.6280  21.7003  22.0758  23.2691  25.8653  26.9122  26.9360
    28.4761  29.0407  29.0825  30.4347  31.3304  33.0483

          k = 0.6667-0.3333 0.6667 (  1607 PWs)   bands (ev):

    -8.6033  -6.7891  -2.1932  -1.0137   0.4530   4.1263   4.5257   6.1631
     6.8696  10.3800  11.2533  11.9648  13.2788  16.7636  17.4119  17.4683
    19.1070  19.9266  22.1107  22.5754  23.7978  24.2413  25.5341  26.1178
    26.1220  27.2048  29.6089  29.6784  31.0353  32.1230

          k = 0.5833-0.2500 0.5833 (  1602 PWs)   bands (ev):

    -8.3025  -7.1536  -2.5702  -0.6945   0.7695   3.7512   4.3700   6.7900
     7.9347   8.4282   9.8657  13.8507  14.2185  15.7952  16.3761  19.6900
    19.9963  20.0814  21.7982  22.4398  23.3020  23.5439  24.7087  25.9391
    26.0382  26.9684  29.7168  29.8932  31.1478  31.8729

          k = 0.5000-0.1667 0.5000 (  1610 PWs)   bands (ev):

    -9.2423  -5.8887  -2.7718  -0.2080   1.3011   3.5730   4.2404   6.6536
     6.7187   8.1711  10.4820  13.0574  14.1262  15.9421  16.1052  17.5019
    19.6282  20.9349  21.8710  22.6471  23.4953  23.6283  26.2366  26.6426
    27.1640  28.0724  29.4619  30.8371  31.7561  32.5792

          k = 0.4167-0.0833 0.4167 (  1613 PWs)   bands (ev):

   -10.0778  -4.3449  -2.7858   0.4156   2.0279   3.5866   4.2161   5.1306
     5.7115   8.3879  11.0350  12.2553  12.7412  13.6085  17.1771  18.3564
    18.4435  19.1853  21.4445  22.8344  25.6072  26.2373  27.6612  27.7983
    28.0598  29.0704  30.1250  32.3302  32.8686  33.5738

          k = 0.3333 0.0000 0.3333 (  1604 PWs)   bands (ev):

   -10.7227  -2.6941  -2.5369   1.0831   2.9093   3.4972   4.1187   4.2526
     4.6897   8.6393   9.5150  10.6278  11.1013  15.0847  15.1441  16.5960
    20.2572  20.2805  21.3952  23.0822  26.9341  27.7344  28.5430  29.6459
    29.6504  29.8223  31.5537  33.0480  33.4789  33.8677

          k = 0.0000 0.5000 0.0000 (  1612 PWs)   bands (ev):

   -10.5848  -1.5698  -1.3481  -1.3481  -0.1197   0.6144   6.9348   6.9348
     8.5407   9.6227   9.6730  10.3526  10.3526  10.9485  17.4012  17.4012
    18.4399  19.0641  20.5926  24.9708  26.3178  27.9575  27.9575  28.2662
    28.2662  28.7724  30.9042  33.2547  35.0642  35.7583

          k =-0.0833 0.5833-0.0833 (  1617 PWs)   bands (ev):

   -10.0741  -2.9446  -2.0750  -1.6393  -0.1828   0.8072   6.9781   7.1852
     9.3585   9.5742  10.8133  11.6656  11.7571  12.8491  15.2374  15.8523
    18.4230  20.2476  21.0046  24.1259  24.4975  26.2432  26.2675  27.4885
    28.6817  29.0850  30.5575  32.6809  33.8644  34.7965

          k =-0.1667 0.6667-0.1667 (  1620 PWs)   bands (ev):

    -9.3651  -4.5055  -2.9070  -1.7416  -0.3419   2.1344   6.3452   6.9233
     9.1495  10.8178  11.9825  12.7225  13.3868  13.9157  14.3838  15.5524
    18.9406  20.4078  21.4060  22.4494  23.4828  24.7410  25.0035  26.6153
    28.7797  29.2329  29.5812  30.9448  32.3453  33.6779

          k = 0.7500-0.2500 0.7500 (  1617 PWs)   bands (ev):

    -8.4753  -5.9419  -3.5741  -1.6541  -0.2850   3.6990   5.7426   6.5959
     8.9309  10.4850  11.5135  12.5983  13.9530  16.0376  16.1883  18.0368
    19.0544  19.5150  19.8280  22.1704  23.2585  23.5775  24.8093  25.6390
    27.9620  28.0891  29.2170  29.8664  30.2154  32.7001

          k = 0.6667-0.1667 0.6667 (  1607 PWs)   bands (ev):

    -7.6980  -6.9007  -4.0561  -1.3791  -0.0083   5.1621   5.2940   6.5855
     8.4503   8.5641  10.2938  14.4753  15.0488  15.9500  17.7987  18.7038
    19.0714  19.8734  20.6721  21.3467  23.0072  23.2617  23.5382  25.2299
    26.1092  27.9703  28.4334  30.2305  30.4267  32.2272

          k = 0.5833-0.0833 0.5833 (  1611 PWs)   bands (ev):

    -8.4838  -5.9176  -4.3439  -0.9233   0.4780   5.0261   5.5587   6.6042
     7.0995   8.1718  10.1919  12.9958  16.2419  16.4950  17.0528  18.1334
    19.5253  20.9846  21.1746  22.0949  22.6035  23.0425  23.9103  24.3579
    26.1472  28.4887  28.7997  29.9134  32.0734  32.6804

          k = 0.5000 0.0000 0.5000 (  1604 PWs)   bands (ev):

    -9.3708  -4.5343  -4.3542  -0.3043   1.1635   4.8180   5.1137   5.3357
     5.9667   9.6691  10.8294  10.9625  14.6414  15.0769  18.1363  18.4718
    19.5030  19.7105  20.9736  21.7063  23.8038  24.6203  25.0712  25.7008
    28.0972  29.2487  29.3619  29.6273  33.3525  33.9760

          k = 0.0000 0.6667 0.0000 (  1624 PWs)   bands (ev):

    -9.6317  -3.3946  -1.9910  -1.9910  -0.7595  -0.4703   8.4236   8.4236
     9.5115  11.7367  11.7757  12.1319  12.2119  12.2119  15.2702  15.2702
    16.1267  18.9791  22.8415  23.6351  24.3807  24.3807  25.0223  26.2474
    29.0533  29.0533  30.1043  32.7682  34.5831  34.5831

          k =-0.0833 0.7500-0.0833 (  1618 PWs)   bands (ev):

    -8.9899  -4.3336  -3.1409  -2.1538  -0.8250   0.2189   8.1901   8.6200
    10.9698  11.5536  12.8615  12.9062  12.9936  13.8937  14.1529  14.8968
    16.2913  18.8488  21.1395  22.7401  22.9164  24.3506  24.4151  25.9903
    28.7345  29.5556  30.1128  32.6805  33.4793  33.7696

          k = 0.8333-0.1667 0.8333 (  1619 PWs)   bands (ev):

    -8.1592  -5.2594  -4.4398  -2.1257  -0.8116   1.7411   7.5727   8.2929
    10.7612  10.8302  12.3658  12.9291  14.4199  15.2319  15.6155  16.9367
    17.3187  18.4600  19.6632  21.4033  21.6073  23.5392  24.2169  26.6853
    27.2654  30.1193  30.4096  30.5738  31.4869  33.0573

          k = 0.7500-0.0833 0.7500 (  1620 PWs)   bands (ev):

    -7.2296  -6.2398  -5.2568  -1.9072  -0.5878   3.4731   7.0684   7.9266
     8.6608   9.3286  12.1619  14.8135  14.9400  16.2527  17.1792  17.3859
    18.1616  19.2839  20.5923  20.7202  20.9239  22.4647  23.4943  25.2467
    27.6966  28.2730  29.2224  30.5446  31.3113  32.7078

          k = 0.6667 0.0000 0.6667 (  1612 PWs)   bands (ev):

    -7.5733  -5.8699  -5.5807  -1.5026  -0.1560   5.2362   6.6586   6.8219
     7.6902   7.7313  12.1638  12.7556  16.6444  17.1337  17.6625  18.4789
    19.0551  19.7622  20.4438  20.8505  21.6499  21.8657  25.0675  25.1549
    25.2485  26.5738  28.9131  30.3975  32.7154  32.8944

          k = 0.0000 0.8333 0.0000 (  1628 PWs)   bands (ev):

    -8.4158  -5.2531  -2.3785  -2.3785  -1.1356  -1.0282   9.8797   9.8797
    10.7579  12.7741  13.0773  13.0773  13.5091  14.0695  14.6999  14.8828
    14.8828  18.1333  20.6267  20.9763  20.9763  22.0439  25.9858  28.0373
    28.9626  29.9905  29.9905  32.9804  33.1404  33.1404

          k = 0.9167-0.0833 0.9167 (  1622 PWs)   bands (ev):

    -7.6493  -6.0728  -3.4697  -2.4120  -1.1272  -0.0621   9.5803  10.0583
    11.1903  11.5580  12.5746  13.7351  14.2753  14.4304  15.0433  16.3190
    17.0566  18.0945  18.9723  19.5243  19.9954  21.3671  26.0259  27.5297
    29.2342  30.4586  31.0895  31.7147  32.6117  33.2586

          k = 0.8333 0.0000 0.8333 (  1614 PWs)   bands (ev):

    -6.7674  -6.6779  -4.7840  -2.2541  -0.9617   1.6101   8.9978   9.0957
     9.6144   9.8404  14.3719  14.5011  14.6960  14.9968  15.9694  16.2575
    17.8113  18.8578  19.0321  19.1814  21.0477  21.6046  24.4550  25.5838
    29.5068  30.4332  30.6640  30.6990  31.9212  32.5491

          k = 0.0000-1.0000 0.0000 (  1604 PWs)   bands (ev):

    -6.9482  -6.9482  -2.5079  -2.5079  -1.2321  -1.2321  11.4203  11.4203
    11.4457  11.4457  12.2782  12.2782  13.6612  13.6612  17.0782  17.0782
    17.4518  17.4518  18.3758  18.3758  19.4938  19.4938  27.6243  27.6243
    30.6458  30.6458  31.4529  31.4529  32.3083  32.3083

          k =-0.1667 0.3333 0.0000 (  1603 PWs)   bands (ev):

   -11.1323  -1.5587  -1.4033   0.8417   1.9320   2.9256   4.4626   4.7757
     6.0719   7.9853   8.5097   9.4496   9.6482  12.2931  15.6501  17.6944
    19.8872  21.6992  22.7212  23.4755  25.9335  28.7503  29.3068  30.0431
    30.7734  31.7001  32.3994  33.0045  33.1968  34.0139

          k =-0.2500 0.4167-0.0833 (  1607 PWs)   bands (ev):

   -10.6204  -3.3009  -1.7837   0.2855   1.9530   3.2198   4.0861   4.8944
     6.4406   7.9742   9.7368  11.0258  11.7273  14.3164  15.2067  17.6212
    18.1105  20.8720  21.7250  23.6878  25.5441  27.5004  28.8189  28.9220
    30.1363  30.7725  31.2341  32.1191  32.5639  33.3890

          k =-0.3333 0.5000-0.1667 (  1604 PWs)   bands (ev):

    -9.9094  -4.9694  -1.9151  -0.3710   1.7313   3.1601   4.6601   4.8663
     6.8254   8.2524  11.1445  12.6876  13.3362  14.3433  15.9041  16.6978
    18.8322  19.9622  22.0380  23.6892  24.2649  26.3788  26.6093  27.6489
    28.9291  29.3371  30.6078  30.9671  31.4682  32.9482

          k = 0.5833-0.4167 0.7500 (  1612 PWs)   bands (ev):

    -9.0170  -6.4439  -1.8899  -0.9069   1.6911   2.6607   4.6681   5.9684
     6.8618   9.5011  10.7544  12.6030  13.8835  15.5138  16.5967  17.7428
    19.0622  21.1499  22.0558  22.4926  23.6665  24.6019  25.7105  26.2218
    27.3167  28.4028  28.8997  30.3280  30.8915  32.8350

          k = 0.5000-0.3333 0.6667 (  1602 PWs)   bands (ev):

    -8.2326  -7.4233  -1.8245  -1.1474   1.7274   2.4339   4.6658   6.0675
     8.0155   8.7653  11.3953  11.8098  14.1302  15.5163  17.5752  18.6629
    20.3226  20.3928  21.7976  22.0106  23.6583  24.4371  24.7608  25.8144
    26.2341  27.8803  28.5496  29.7509  31.0801  32.7067

          k =-0.1667 0.5000 0.0000 (  1617 PWs)   bands (ev):

   -10.4491  -2.5336  -2.3044  -0.8582   1.0826   1.4381   5.4942   6.6010
     7.7778   9.3301   9.7574  10.8937  11.3496  13.1670  15.3091  17.5287
    19.1976  19.4402  21.8019  23.3553  25.1677  27.1004  27.2222  29.1511
    29.4221  30.1216  30.8352  32.4217  33.6824  33.8469

          k =-0.2500 0.5833-0.0833 (  1611 PWs)   bands (ev):

    -9.8049  -4.1141  -2.6341  -1.6035   1.0329   2.4773   4.8413   6.7760
     8.3986   9.2422  11.3347  12.4787  12.9877  13.6581  15.2997  16.0140
    19.3413  21.0162  21.7447  22.5548  23.2142  25.1570  26.3931  27.8085
    28.3351  29.7441  30.7161  31.4029  32.3535  32.6490

          k = 0.6667-0.3333 0.8333 (  1617 PWs)   bands (ev):

    -8.9705  -5.6389  -2.8249  -2.1019   1.0251   3.6948   4.4921   6.6668
     8.2392  10.0407  10.9889  12.9996  14.0599  14.3815  16.4389  17.8565
    19.3052  20.2153  20.5657  22.9293  23.4018  23.9890  25.2018  26.3885
    27.2166  28.1348  29.4080  30.4366  31.0581  32.0307

          k = 0.5833-0.2500 0.7500 (  1607 PWs)   bands (ev):

    -8.0324  -6.8945  -3.1517  -2.0964   1.2149   3.5483   5.6620   6.6973
     7.8036   8.7646  11.5622  12.3154  15.2213  16.4464  17.3194  17.9528
    19.3300  20.1138  21.2820  21.6892  23.3085  23.6379  24.5391  25.5780
    26.2568  27.8176  28.1439  29.1333  30.7406  32.0840

          k = 0.5000-0.1667 0.6667 (  1605 PWs)   bands (ev):

    -8.3373  -6.5233  -3.4441  -1.7455   1.5878   3.2714   5.9578   6.4151
     7.9503   8.4174  10.1140  13.9459  14.7000  15.8555  17.2125  18.8259
    19.3412  20.2476  21.3691  22.1512  23.0325  23.5738  24.5611  24.8885
    26.4352  27.1649  29.4170  29.5993  30.8698  32.0378

          k = 0.4167-0.0833 0.5833 (  1610 PWs)   bands (ev):

    -9.2705  -5.1411  -3.5777  -1.1759   2.1068   3.1722   4.6509   6.0810
     7.6242   9.1245  10.5337  12.2231  14.2106  15.5183  16.3748  18.7092
    19.0362  20.0918  21.7773  22.1764  23.1883  24.2087  25.2444  26.5452
    27.1878  28.2621  30.3246  30.8221  31.4758  32.6359

          k = 0.3333 0.0000 0.5000 (  1606 PWs)   bands (ev):

   -10.0430  -3.6259  -3.4451  -0.4425   2.6402   2.9485   3.7058   5.8687
     6.5440   9.4601  10.2745  12.5876  12.6505  13.2037  16.3298  17.9532
    19.5508  19.7836  21.0061  22.7215  24.5883  26.0996  26.5113  27.6177
    28.7369  30.5995  31.0986  31.4789  31.9667  32.9097

          k =-0.1667 0.6667-0.0000 (  1626 PWs)   bands (ev):

    -9.4979  -3.5671  -2.9522  -2.5139   0.4546   0.5972   6.5489   8.3187
     9.8588  10.8903  10.9779  12.7642  13.2114  13.5056  14.3960  15.4781
    17.3474  20.0841  22.4885  22.8140  23.4717  24.4733  25.5265  26.2687
    27.8118  29.4391  30.8370  32.8582  32.9763  33.2269

          k = 0.7500-0.2500 0.9167 (  1621 PWs)   bands (ev):

    -8.7272  -4.7605  -3.7945  -2.8611   0.4714   1.9629   5.8972   8.4827
    10.1339  10.7842  11.4678  12.9686  13.7662  14.4490  15.7275  16.8632
    17.6393  19.7779  20.5745  21.7299  22.8661  24.5072  25.3044  25.6194
    27.1981  27.9863  30.1545  31.3887  31.9010  32.6199

          k = 0.6667-0.1667 0.8333 (  1616 PWs)   bands (ev):

    -7.7969  -6.0510  -4.4314  -2.7636   0.6192   3.5864   5.3932   8.1885
     8.4410  10.4446  11.8983  12.9245  15.2902  15.8323  17.1585  17.7523
    18.0668  20.0421  20.2819  20.7305  22.3367  23.1745  24.0753  26.5249
    26.6602  27.4829  28.5983  29.7582  30.9033  32.1263

          k = 0.5833-0.0833 0.7500 (  1614 PWs)   bands (ev):

    -7.5130  -6.3752  -4.8603  -2.4295   0.9611   4.6694   5.6273   6.5901
     8.0330   9.4366  11.2780  13.9597  14.8116  17.3612  17.6881  18.2447
    19.0029  19.6462  20.3969  21.4552  21.8933  23.4349  24.0159  24.3766
    26.6395  27.2809  27.6098  30.2203  30.7525  31.8344

          k = 0.5000 0.0000 0.6667 (  1621 PWs)   bands (ev):

    -8.4439  -5.2160  -4.9919  -1.8925   1.4836   4.4544   4.8152   7.0248
     8.0214   8.3574  11.3630  11.8810  16.1549  16.8352  16.9284  18.4008
    19.1693  20.4008  20.6149  22.0855  22.3747  23.4814  23.7417  25.4739
    26.6861  27.5764  27.6073  30.6550  31.5911  31.7754

          k = 0.8333-0.1667 1.0000 (  1617 PWs)   bands (ev):

    -8.2859  -5.1716  -3.3351  -3.2402   0.0789   0.1337   7.7840   9.8958
    10.8361  11.5859  12.8455  13.2608  13.4350  14.3786  15.1859  15.9328
    16.7219  18.8336  19.5332  20.2087  22.5385  23.0297  24.8900  27.3706
    27.4695  29.1096  31.3726  32.2194  32.5982  32.9060

          k = 0.7500-0.0833 0.9167 (  1620 PWs)   bands (ev):

    -7.4037  -5.8988  -4.6510  -3.2072   0.1970   1.7039   7.2072   8.7398
    10.0381  11.5831  13.0662  13.4305  14.5233  15.6063  16.1040  16.6751
    17.4471  18.7192  19.3485  20.3602  21.5620  22.7609  23.9924  25.5614
    28.2426  29.4898  29.6083  30.8284  31.6154  32.3668

          k = 0.6667 0.0000 0.8333 (  1620 PWs)   bands (ev):

    -6.7476  -6.2888  -5.5966  -2.9196   0.4848   3.4891   6.7550   6.7963
     9.5663   9.9641  13.4004  13.7049  14.8046  15.9044  17.1211  17.6471
    18.0502  19.3365  20.6019  20.9909  21.7002  22.4128  23.9859  24.0014
    26.7618  27.9517  29.4643  30.5415  30.8105  31.7378

          k =-0.1667-1.0000 0.0000 (  1622 PWs)   bands (ev):

    -6.8284  -6.8284  -3.4419  -3.4419  -0.0317  -0.0317   9.2334   9.2334
    11.5009  11.5009  13.0266  13.0266  15.0602  15.0602  15.9453  15.9453
    17.5057  17.5057  19.4535  19.4535  20.3883  20.3883  26.1703  26.1703
    29.9435  29.9435  31.1823  31.1823  32.7235  32.7235

          k = 0.6667-0.3333 1.0000 (  1610 PWs)   bands (ev):

    -9.0986  -4.3617  -4.0933  -2.4396   2.3192   2.3476   4.1797   7.8912
     8.9126   9.9805  11.2376  11.3808  14.7051  15.1705  15.5817  17.6849
    18.0110  21.2230  21.4667  22.2061  22.5743  23.6713  25.3898  26.7801
    27.0961  28.4268  29.4597  30.0928  31.8002  32.9703

          k = 0.5833-0.2500 0.9167 (  1611 PWs)   bands (ev):

    -8.2128  -5.6815  -4.1774  -3.0698   2.3326   3.2735   4.2898   7.7529
     8.6075   9.8879  11.0517  13.2831  14.1890  16.3222  17.3814  18.2529
    18.7203  20.0398  20.3686  21.2966  22.6015  23.8895  25.1236  26.0414
    26.4498  26.9135  28.1325  28.7338  30.5660  32.0879

          k = 0.5000-0.1667 0.8333 (  1610 PWs)   bands (ev):

    -7.4325  -6.6454  -4.1096  -3.3407   2.3738   3.1845   5.5723   6.3840
     8.4438  10.1082  12.1385  12.4619  15.5909  16.1155  17.5254  18.3155
    18.8200  19.5672  21.1275  21.7039  22.6240  23.4016  23.5427  25.1961
    26.7141  27.1966  28.4106  28.6574  29.1024  31.1873

          k = 0.6667-0.1667 1.0000 (  1618 PWs)   bands (ev):

    -7.9025  -5.1444  -4.4641  -4.0065   1.9764   1.9774   5.2699   8.2615
     9.9638  11.3942  12.5175  12.7459  13.6854  15.6755  16.5733  17.6034
    18.5080  18.7549  19.9976  21.0576  22.5752  24.2178  24.3022  25.4649
    27.0020  27.3860  29.0292  29.1584  30.0969  33.3997

          k = 0.5833-0.0833 0.9167 (  1615 PWs)   bands (ev):

    -6.9769  -6.0058  -5.0680  -4.1109   2.1703   3.5870   4.8816   6.2977
    10.2261  11.8199  12.7978  12.8960  14.7155  15.4827  16.0231  17.5266
    18.8560  20.2020  20.8620  21.8699  22.5385  22.7662  23.6246  25.1014
    25.7212  26.9473  27.7411  28.6548  30.3712  31.9996

          k = 0.5000 0.0000 0.8333 (  1612 PWs)   bands (ev):

    -7.3034  -5.6921  -5.3133  -3.7262   2.5044   4.0194   4.5184   6.0139
     9.8193  10.6021  12.7678  12.9982  14.1792  16.1822  17.0362  18.0214
    19.2608  20.1299  20.1987  21.7014  22.8933  22.9814  24.0602  25.3854
    25.6423  26.5824  27.7349  28.2191  29.6302  32.6805

          k =-0.3333-1.0000 0.0000 (  1618 PWs)   bands (ev):

    -6.4977  -6.4977  -4.5180  -4.5180   1.8531   1.8531   6.6677   6.6677
    11.6573  11.6573  13.3254  13.3254  14.8206  14.8206  16.0274  16.0274
    18.5895  18.5895  21.7323  21.7323  21.8585  21.8585  23.8034  23.8034
    28.0191  28.0191  28.6287  28.6287  31.9502  31.9502

          k =-0.5000-1.0000 0.0000 (  1628 PWs)   bands (ev):

    -6.2107  -6.2107  -5.0617  -5.0617   3.5137   3.5137   4.7766   4.7766
    11.7494  11.7494  13.5251  13.5251  14.3750  14.3750  15.8438  15.8438
    20.7278  20.7278  21.4138  21.4138  22.6386  22.6386  24.8097  24.8097
    25.2032  25.2032  27.1300  27.1300  32.0972  32.0972

     the Fermi energy is    27.4310 ev

     Writing output data file Si.save

     init_run     :      0.12s CPU      0.12s WALL (       1 calls)
     electrons    :     93.78s CPU     97.80s WALL (       1 calls)

     Called by init_run:
     wfcinit      :      0.00s CPU      0.00s WALL (       1 calls)
     potinit      :      0.03s CPU      0.03s WALL (       1 calls)

     Called by electrons:
     c_bands      :     93.47s CPU     97.48s WALL (       1 calls)
     v_of_rho     :      0.03s CPU      0.03s WALL (       1 calls)

     Called by c_bands:
     init_us_2    :      0.09s CPU      0.09s WALL (      72 calls)
     cegterg      :     87.36s CPU     91.10s WALL (     115 calls)

     Called by *egterg:
     h_psi        :     60.75s CPU     63.53s WALL (    1791 calls)
     g_psi        :      0.18s CPU      0.19s WALL (    1604 calls)
     cdiaghg      :      5.71s CPU      5.96s WALL (    1676 calls)

     Called by h_psi:
     add_vuspsi   :      1.69s CPU      1.75s WALL (    1791 calls)

     General routines
     calbec       :      1.93s CPU      2.02s WALL (    1791 calls)
     fft          :      0.01s CPU      0.01s WALL (      10 calls)
     fftw         :     53.98s CPU     56.48s WALL (   58352 calls)
     davcio       :      0.01s CPU      0.02s WALL (      72 calls)

     Parallel routines
     fft_scatter  :      1.36s CPU      1.39s WALL (   58362 calls)

     PWSCF        :  1m35.36s CPU     1m39.45s WALL


   This run was terminated on:  22:19:47  13Feb2023            

=------------------------------------------------------------------------------=
   JOB DONE.
=------------------------------------------------------------------------------=
