
     Program PWSCF v.5.1 starts on 13Feb2023 at 22:16:58 

     This program is part of the open-source Quantum ESPRESSO suite
     for quantum simulation of materials; please cite
         "P. Giannozzi et al., J. Phys.:Condens. Matter 21 395502 (2009);
          URL http://www.quantum-espresso.org", 
     in publications or presentations arising from this work. More details at
     http://www.quantum-espresso.org/quote

     Parallel version (MPI), running on     1 processors
     Waiting for input...
     Reading input from standard input

     Current dimensions of program PWSCF are:
     Max number of different atomic species (ntypx) = 10
     Max number of k-points (npk) =  40000
     Max angular momentum in pseudopotentials (lmaxx) =  3
               file Si.pbe-mt_fhi.UPF: wavefunction(s)  4f renormalized

     Subspace diagonalization in iterative solution of the eigenvalue problem:
     a serial algorithm will be used


     G-vector sticks info
     --------------------
     sticks:   dense  smooth     PW     G-vecs:    dense   smooth      PW
     Sum         733     733    211                12939    12939    2109



     bravais-lattice index     =            2
     lattice parameter (alat)  =      10.2623  a.u.
     unit-cell volume          =     270.1967 (a.u.)^3
     number of atoms/cell      =            2
     number of atomic types    =            1
     number of electrons       =        48.00
     number of Kohn-Sham states=           30
     kinetic-energy cutoff     =      50.0000  Ry
     charge density cutoff     =     200.0000  Ry
     convergence threshold     =      1.6E-09
     mixing beta               =       0.3000
     number of iterations used =            8  plain     mixing
     Exchange-correlation      = PBE ( 1  4  3  4 0)

     celldm(1)=  10.262347  celldm(2)=   0.000000  celldm(3)=   0.000000
     celldm(4)=   0.000000  celldm(5)=   0.000000  celldm(6)=   0.000000

     crystal axes: (cart. coord. in units of alat)
               a(1) = (  -0.500000   0.000000   0.500000 )  
               a(2) = (   0.000000   0.500000   0.500000 )  
               a(3) = (  -0.500000   0.500000   0.000000 )  

     reciprocal axes: (cart. coord. in units 2 pi/alat)
               b(1) = ( -1.000000 -1.000000  1.000000 )  
               b(2) = (  1.000000  1.000000  1.000000 )  
               b(3) = ( -1.000000  1.000000 -1.000000 )  


     PseudoPot. # 1 for Si read from file:
     /home/acedemo/psudo/Si.pbe-mt_fhi.UPF
     MD5 check sum: 259057c2adf9952f9ced37ae3d9e311d
     Pseudo is Norm-conserving, Zval =  4.0
     Generated using FHI98PP, converted with fhi2upf.x v.5.0.2
     Using radial grid of  495 points,  3 beta functions with: 
                l(1) =   0
                l(2) =   1
                l(3) =   3

     atomic species   valence    mass     pseudopotential
        Si             4.00    28.08550     Si( 1.00)

     48 Sym. Ops., with inversion, found (24 have fractional translation)



   Cartesian axes

     site n.     atom                  positions (alat units)
         1           Si  tau(   1) = (   0.0000000   0.0000000   0.0000000  )
         2           Si  tau(   2) = (   0.2500000   0.2500000   0.2500000  )

     number of k points=    10  Marzari-Vanderbilt smearing, width (Ry)=  0.0500
                       cart. coord. in units 2pi/alat
        k(    1) = (   0.0000000   0.0000000   0.0000000), wk =   0.0160000
        k(    2) = (  -0.2000000   0.2000000  -0.2000000), wk =   0.1280000
        k(    3) = (  -0.4000000   0.4000000  -0.4000000), wk =   0.1280000
        k(    4) = (   0.0000000   0.4000000   0.0000000), wk =   0.0960000
        k(    5) = (  -0.2000000   0.6000000  -0.2000000), wk =   0.3840000
        k(    6) = (   0.6000000  -0.2000000   0.6000000), wk =   0.3840000
        k(    7) = (   0.4000000   0.0000000   0.4000000), wk =   0.1920000
        k(    8) = (   0.0000000   0.8000000   0.0000000), wk =   0.0960000
        k(    9) = (   0.8000000   0.0000000   0.8000000), wk =   0.1920000
        k(   10) = (   0.6000000  -0.2000000   1.0000000), wk =   0.3840000

     Dense  grid:    12939 G-vectors     FFT dimensions: (  36,  36,  36)

     Largest allocated arrays     est. size (Mb)     dimensions
        Kohn-Sham Wavefunctions         0.75 Mb     (    1639,   30)
        NL pseudopotentials             0.55 Mb     (    1639,   22)
        Each V/rho on FFT grid          0.71 Mb     (   46656)
        Each G-vector array             0.10 Mb     (   12939)
        G-vector shells                 0.00 Mb     (     180)
     Largest temporary arrays     est. size (Mb)     dimensions
        Auxiliary wavefunctions         3.00 Mb     (    1639,  120)
        Each subspace H/S matrix        0.22 Mb     (     120,  120)
        Each <psi_i|beta_j> matrix      0.01 Mb     (      22,   30)
        Arrays for rho mixing           5.70 Mb     (   46656,    8)

     Initial potential from superposition of free atoms

     starting charge    7.99859, renormalised to   48.00000
     Starting wfc are   32 randomized atomic wfcs

     total cpu time spent up to now is        0.9 secs

     per-process dynamical memory:    21.5 Mb

     Self-consistent Calculation

     iteration #  1     ecut=    50.00 Ry     beta=0.30
     Davidson diagonalization with overlap
     ethr =  1.00E-02,  avg # of iterations =  6.1

     total cpu time spent up to now is        5.1 secs

     total energy              =      50.59415533 Ry
     Harris-Foulkes estimate   =      -0.96827506 Ry
     estimated scf accuracy    <     114.51114467 Ry

     iteration #  2     ecut=    50.00 Ry     beta=0.30
     Davidson diagonalization with overlap
     ethr =  1.00E-02,  avg # of iterations =  3.2

     total cpu time spent up to now is        8.1 secs

     total energy              =      37.02996708 Ry
     Harris-Foulkes estimate   =      35.26189441 Ry
     estimated scf accuracy    <       3.33120496 Ry

     iteration #  3     ecut=    50.00 Ry     beta=0.30
     Davidson diagonalization with overlap
     ethr =  6.94E-03,  avg # of iterations =  2.7

     total cpu time spent up to now is       10.2 secs

     total energy              =      36.27501482 Ry
     Harris-Foulkes estimate   =      36.25985941 Ry
     estimated scf accuracy    <       0.08787502 Ry

     iteration #  4     ecut=    50.00 Ry     beta=0.30
     Davidson diagonalization with overlap
     ethr =  1.83E-04,  avg # of iterations =  2.1

     total cpu time spent up to now is       12.0 secs

     total energy              =      36.30168216 Ry
     Harris-Foulkes estimate   =      36.27219194 Ry
     estimated scf accuracy    <       0.05008660 Ry

     iteration #  5     ecut=    50.00 Ry     beta=0.30
     Davidson diagonalization with overlap
     ethr =  1.04E-04,  avg # of iterations =  2.0

     total cpu time spent up to now is       14.1 secs

     total energy              =      36.29161181 Ry
     Harris-Foulkes estimate   =      36.29063383 Ry
     estimated scf accuracy    <       0.00308770 Ry

     iteration #  6     ecut=    50.00 Ry     beta=0.30
     Davidson diagonalization with overlap
     ethr =  6.43E-06,  avg # of iterations =  2.6

     total cpu time spent up to now is       16.0 secs

     total energy              =      36.29171463 Ry
     Harris-Foulkes estimate   =      36.29142012 Ry
     estimated scf accuracy    <       0.00063286 Ry

     iteration #  7     ecut=    50.00 Ry     beta=0.30
     Davidson diagonalization with overlap
     ethr =  1.32E-06,  avg # of iterations =  2.1

     total cpu time spent up to now is       18.1 secs

     total energy              =      36.29157331 Ry
     Harris-Foulkes estimate   =      36.29157306 Ry
     estimated scf accuracy    <       0.00001022 Ry

     iteration #  8     ecut=    50.00 Ry     beta=0.30
     Davidson diagonalization with overlap
     ethr =  2.13E-08,  avg # of iterations =  2.1

     total cpu time spent up to now is       20.1 secs

     total energy              =      36.29157136 Ry
     Harris-Foulkes estimate   =      36.29157135 Ry
     estimated scf accuracy    <       0.00000064 Ry

     iteration #  9     ecut=    50.00 Ry     beta=0.30
     Davidson diagonalization with overlap
     ethr =  1.33E-09,  avg # of iterations =  3.0

     total cpu time spent up to now is       22.5 secs

     total energy              =      36.29157114 Ry
     Harris-Foulkes estimate   =      36.29157103 Ry
     estimated scf accuracy    <       0.00000052 Ry

     iteration # 10     ecut=    50.00 Ry     beta=0.30
     Davidson diagonalization with overlap
     ethr =  1.08E-09,  avg # of iterations =  2.0

     total cpu time spent up to now is       24.4 secs

     total energy              =      36.29157106 Ry
     Harris-Foulkes estimate   =      36.29157106 Ry
     estimated scf accuracy    <       0.00000001 Ry

     iteration # 11     ecut=    50.00 Ry     beta=0.30
     Davidson diagonalization with overlap
     ethr =  2.96E-11,  avg # of iterations =  2.6

     total cpu time spent up to now is       26.8 secs

     End of self-consistent calculation

          k = 0.0000 0.0000 0.0000 (  1639 PWs)   bands (ev):

   -11.8183   1.7170   1.7170   1.7170   2.4381   2.4381   2.4381   4.8326
     4.9164   7.2910   7.2910   8.2490   8.2490   8.2490  11.0993  23.8603
    23.8603  23.8603  25.5837  25.5837  26.3678  26.3678  26.3678  28.5584
    28.5584  28.5584  33.6728  35.8112  35.8112  35.8112

          k =-0.2000 0.2000-0.2000 (  1606 PWs)   bands (ev):

   -11.2257  -2.4575   0.6852   0.6852   2.5097   3.5882   3.5882   5.4840
     5.5953   5.5953   6.9828   9.6424  12.1190  12.1190  14.2366  19.1266
    19.1266  20.0436  25.1960  25.1960  27.1839  27.1839  28.3069  29.1395
    30.6799  32.1668  32.1668  33.6649  33.6649  34.4540

          k =-0.4000 0.4000-0.4000 (  1616 PWs)   bands (ev):

    -9.4785  -6.4306   0.2301   0.2301   2.2395   2.3627   2.3627   3.8977
     8.6116   8.6116  10.0560  13.3415  13.3415  14.8061  16.6593  17.6366
    17.6366  19.6469  23.4778  24.1879  24.1879  26.7061  26.7061  26.9625
    28.5180  28.5180  30.7525  31.2167  31.2167  32.1178

          k = 0.0000 0.4000 0.0000 (  1607 PWs)   bands (ev):

   -11.0279  -0.8423  -0.8423  -0.6330   0.3807   1.6376   5.9783   5.9783
     8.0910   8.3656   8.3794   9.5341   9.5341  10.5083  16.8636  18.7963
    18.7963  19.9420  21.6892  24.5750  27.2698  27.8630  27.8630  30.1123
    30.1123  30.9059  31.6635  33.9504  34.0511  34.0511

          k =-0.2000 0.6000-0.2000 (  1619 PWs)   bands (ev):

    -9.6586  -4.7454  -2.0522  -1.4098   0.0736   3.0581   5.4510   5.9467
     7.8469  10.1331  11.2510  13.0741  13.5025  14.0262  14.6162  15.5304
    20.4198  20.4828  21.7836  22.0874  22.8522  26.2046  26.2964  26.9638
    28.9726  29.2632  30.0726  30.2532  31.7994  33.5337

          k = 0.6000-0.2000 0.6000 (  1596 PWs)   bands (ev):

    -8.2017  -6.9329  -3.2465  -0.9017   0.5221   4.2779   4.8756   7.4736
     7.5625   8.0366   9.6884  14.4992  14.7184  15.8079  16.3911  19.6113
    19.9805  20.0372  21.1431  22.3173  23.2282  23.7292  24.3470  24.9461
    25.4036  27.6559  29.9864  30.1014  30.2314  32.0460

          k = 0.4000 0.0000 0.4000 (  1610 PWs)   bands (ev):

   -10.2441  -3.4883  -3.3242   0.5473   2.1751   3.9625   4.4534   4.5656
     5.1321   9.1884  10.0692  12.1438  12.5285  13.2820  16.7681  18.1623
    19.4909  19.6481  20.6027  22.4996  26.1857  27.0377  27.8247  27.8413
    28.0493  28.9671  31.6373  31.7729  33.1033  33.8901

          k = 0.0000 0.8000 0.0000 (  1624 PWs)   bands (ev):

    -8.6796  -4.8911  -2.3216  -2.3216  -1.0822  -0.9478   9.5838   9.5838
    10.4866  12.5699  13.2538  13.3248  13.3248  14.1628  14.4598  14.4903
    14.4903  18.1872  21.2221  21.6347  21.6347  22.6376  25.5047  27.4835
    29.2149  29.7988  29.7988  32.9509  33.4085  33.4085

          k = 0.8000 0.0000 0.8000 (  1622 PWs)   bands (ev):

    -6.7291  -6.5592  -5.2226  -2.1429  -0.8430   2.3340   8.4925   8.6023
     9.1636   9.4051  13.9964  14.1983  15.1688  15.6024  16.2964  16.6202
    18.1817  19.0991  19.1376  19.5413  21.6328  21.9303  23.8793  24.8581
    29.3129  29.3520  29.9375  30.6997  32.0154  32.6545

          k = 0.6000-0.2000 1.0000 (  1616 PWs)   bands (ev):

    -7.9381  -5.1858  -4.7977  -3.6994   2.6962   2.8569   4.2131   7.6245
     9.5654  10.5733  12.3396  12.3976  14.2248  16.0985  17.1337  17.9164
    18.8868  19.1495  20.7761  21.4158  21.8644  24.1170  24.9184  25.8786
    26.7825  26.9045  27.8172  28.0985  29.9025  33.1732

     the Fermi energy is    27.3467 ev

!    total energy              =      36.29157106 Ry
     Harris-Foulkes estimate   =      36.29157106 Ry
     estimated scf accuracy    <          1.3E-09 Ry

     The total energy is the sum of the following terms:

     one-electron contribution =      96.24796167 Ry
     hartree contribution      =       2.63782072 Ry
     xc contribution           =     -45.79561536 Ry
     ewald contribution        =     -16.79708774 Ry
     smearing contrib. (-TS)   =      -0.00150823 Ry

     convergence has been achieved in  11 iterations

     Forces acting on atoms (Ry/au):

     atom    1 type  1   force =     0.00000000   -0.00000000    0.00000000
     atom    2 type  1   force =    -0.00000000    0.00000000   -0.00000000

     Total force =     0.000000     Total SCF correction =     0.000000


     entering subroutine stress ...

          total   stress  (Ry/bohr**3)                   (kbar)     P=28364.74
   0.19281958   0.00000000   0.00000000      28364.74      0.00      0.00
   0.00000000   0.19281958  -0.00000000          0.00  28364.74     -0.00
   0.00000000  -0.00000000   0.19281958          0.00     -0.00  28364.74


     Writing output data file Si.save

     init_run     :      0.78s CPU      0.82s WALL (       1 calls)
     electrons    :     25.71s CPU     25.92s WALL (       1 calls)
     forces       :      0.10s CPU      0.10s WALL (       1 calls)
     stress       :      0.52s CPU      0.53s WALL (       1 calls)

     Called by init_run:
     wfcinit      :      0.65s CPU      0.67s WALL (       1 calls)
     potinit      :      0.05s CPU      0.06s WALL (       1 calls)

     Called by electrons:
     c_bands      :     22.34s CPU     22.52s WALL (      11 calls)
     sum_band     :      3.00s CPU      3.01s WALL (      11 calls)
     v_of_rho     :      0.38s CPU      0.40s WALL (      12 calls)
     mix_rho      :      0.02s CPU      0.02s WALL (      11 calls)

     Called by c_bands:
     init_us_2    :      0.27s CPU      0.27s WALL (     250 calls)
     cegterg      :     22.11s CPU     22.29s WALL (     110 calls)

     Called by *egterg:
     h_psi        :     17.01s CPU     17.16s WALL (     425 calls)
     g_psi        :      0.04s CPU      0.04s WALL (     305 calls)
     cdiaghg      :      0.93s CPU      0.93s WALL (     415 calls)

     Called by h_psi:
     add_vuspsi   :      0.47s CPU      0.47s WALL (     425 calls)

     General routines
     calbec       :      0.55s CPU      0.56s WALL (     445 calls)
     fft          :      0.13s CPU      0.14s WALL (     139 calls)
     fftw         :     17.75s CPU     17.91s WALL (   22518 calls)
     davcio       :      0.00s CPU      0.00s WALL (      10 calls)

     Parallel routines
     fft_scatter  :      0.46s CPU      0.46s WALL (   22657 calls)

     PWSCF        :    27.19s CPU        27.45s WALL


   This run was terminated on:  22:17:26  13Feb2023            

=------------------------------------------------------------------------------=
   JOB DONE.
=------------------------------------------------------------------------------=
