
     Program PWSCF v.5.1 starts on 13Feb2023 at 18: 0:26 

     This program is part of the open-source Quantum ESPRESSO suite
     for quantum simulation of materials; please cite
         "P. Giannozzi et al., J. Phys.:Condens. Matter 21 395502 (2009);
          URL http://www.quantum-espresso.org", 
     in publications or presentations arising from this work. More details at
     http://www.quantum-espresso.org/quote

     Parallel version (MPI), running on     1 processors
     Waiting for input...
     Reading input from standard input

     Current dimensions of program PWSCF are:
     Max number of different atomic species (ntypx) = 10
     Max number of k-points (npk) =  40000
     Max angular momentum in pseudopotentials (lmaxx) =  3

     Atomic positions and unit cell read from directory:
     ./out/Si.save/

               file Si.pbe-mt_fhi.UPF: wavefunction(s)  4f renormalized

     Subspace diagonalization in iterative solution of the eigenvalue problem:
     a serial algorithm will be used


     G-vector sticks info
     --------------------
     sticks:   dense  smooth     PW     G-vecs:    dense   smooth      PW
     Sum         733     733    211                12939    12939    2109



     bravais-lattice index     =            2
     lattice parameter (alat)  =      10.2623  a.u.
     unit-cell volume          =     270.1967 (a.u.)^3
     number of atoms/cell      =            2
     number of atomic types    =            1
     number of electrons       =        28.00
     number of Kohn-Sham states=           24
     kinetic-energy cutoff     =      50.0000  Ry
     charge density cutoff     =     200.0000  Ry
     Exchange-correlation      = PBE ( 1  4  3  4 0)

     celldm(1)=  10.262347  celldm(2)=   0.000000  celldm(3)=   0.000000
     celldm(4)=   0.000000  celldm(5)=   0.000000  celldm(6)=   0.000000

     crystal axes: (cart. coord. in units of alat)
               a(1) = (  -0.500000   0.000000   0.500000 )  
               a(2) = (   0.000000   0.500000   0.500000 )  
               a(3) = (  -0.500000   0.500000   0.000000 )  

     reciprocal axes: (cart. coord. in units 2 pi/alat)
               b(1) = ( -1.000000 -1.000000  1.000000 )  
               b(2) = (  1.000000  1.000000  1.000000 )  
               b(3) = ( -1.000000  1.000000 -1.000000 )  


     PseudoPot. # 1 for Si read from file:
     /home/acedemo/psudo/Si.pbe-mt_fhi.UPF
     MD5 check sum: 259057c2adf9952f9ced37ae3d9e311d
     Pseudo is Norm-conserving, Zval =  4.0
     Generated using FHI98PP, converted with fhi2upf.x v.5.0.2
     Using radial grid of  495 points,  3 beta functions with: 
                l(1) =   0
                l(2) =   1
                l(3) =   3

     atomic species   valence    mass     pseudopotential
        Si             4.00    28.08550     Si( 1.00)

     48 Sym. Ops., with inversion, found (24 have fractional translation)



   Cartesian axes

     site n.     atom                  positions (alat units)
         1           Si  tau(   1) = (   0.0000000   0.0000000   0.0000000  )
         2           Si  tau(   2) = (   0.2500000   0.2500000   0.2500000  )

     number of k points=    51  Marzari-Vanderbilt smearing, width (Ry)=  0.0500
                       cart. coord. in units 2pi/alat
        k(    1) = (   0.5000000   0.5000000   0.5000000), wk =   0.0000000
        k(    2) = (   0.4500000   0.4500000   0.4500000), wk =   0.0014779
        k(    3) = (   0.4000000   0.4000000   0.4000000), wk =   0.0029558
        k(    4) = (   0.3500000   0.3500000   0.3500000), wk =   0.0044337
        k(    5) = (   0.3000000   0.3000000   0.3000000), wk =   0.0059116
        k(    6) = (   0.2500000   0.2500000   0.2500000), wk =   0.0073895
        k(    7) = (   0.2000000   0.2000000   0.2000000), wk =   0.0088674
        k(    8) = (   0.1500000   0.1500000   0.1500000), wk =   0.0103453
        k(    9) = (   0.1000000   0.1000000   0.1000000), wk =   0.0118232
        k(   10) = (   0.0500000   0.0500000   0.0500000), wk =   0.0133011
        k(   11) = (   0.0000000   0.0000000   0.0000000), wk =   0.0147790
        k(   12) = (   0.0000000   0.1000000   0.0000000), wk =   0.0168691
        k(   13) = (   0.0000000   0.2000000   0.0000000), wk =   0.0189591
        k(   14) = (   0.0000000   0.3000000   0.0000000), wk =   0.0210492
        k(   15) = (   0.0000000   0.4000000   0.0000000), wk =   0.0231392
        k(   16) = (   0.0000000   0.5000000   0.0000000), wk =   0.0252293
        k(   17) = (   0.0000000   0.6000000   0.0000000), wk =   0.0273194
        k(   18) = (   0.0000000   0.7000000   0.0000000), wk =   0.0294094
        k(   19) = (   0.0000000   0.8000000   0.0000000), wk =   0.0314995
        k(   20) = (   0.0000000   0.9000000   0.0000000), wk =   0.0335896
        k(   21) = (   0.0000000   1.0000000   0.0000000), wk =   0.0356796
        k(   22) = (   0.0000000   0.9750000   0.0750000), wk =   0.0370621
        k(   23) = (   0.0000000   0.9500000   0.1500000), wk =   0.0384445
        k(   24) = (  -0.0000000   0.9250000   0.2250000), wk =   0.0398270
        k(   25) = (  -0.0000000   0.9000000   0.3000000), wk =   0.0412094
        k(   26) = (   0.0000000   0.8750000   0.3750000), wk =   0.0425919
        k(   27) = (   0.0000000   0.8500000   0.4500000), wk =   0.0439743
        k(   28) = (   0.0000000   0.8250000   0.5250000), wk =   0.0453568
        k(   29) = (  -0.0000000   0.8000000   0.6000000), wk =   0.0467392
        k(   30) = (  -0.0000000   0.7750000   0.6750000), wk =   0.0481217
        k(   31) = (   0.0000000   0.7500000   0.7500000), wk =   0.0495041
        k(   32) = (   0.0000000   0.7250000   0.7750000), wk =   0.0500266
        k(   33) = (   0.0000000   0.7000000   0.8000000), wk =   0.0505491
        k(   34) = (   0.0000000   0.6750000   0.8250000), wk =   0.0510717
        k(   35) = (   0.0000000   0.6500000   0.8500000), wk =   0.0515942
        k(   36) = (   0.0000000   0.6250000   0.8750000), wk =   0.0521167
        k(   37) = (   0.0000000   0.6000000   0.9000000), wk =   0.0526392
        k(   38) = (   0.0000000   0.5750000   0.9250000), wk =   0.0531617
        k(   39) = (   0.0000000   0.5500000   0.9500000), wk =   0.0536842
        k(   40) = (   0.0000000   0.5250000   0.9750000), wk =   0.0542067
        k(   41) = (   0.0000000   0.5000000   1.0000000), wk =   0.0547293
        k(   42) = (   0.0000000   0.4500000   0.9000000), wk =   0.0574942
        k(   43) = (  -0.0000000   0.4000000   0.8000000), wk =   0.0602591
        k(   44) = (  -0.0000000   0.3500000   0.7000000), wk =   0.0630239
        k(   45) = (  -0.0000000   0.3000000   0.6000000), wk =   0.0657888
        k(   46) = (   0.0000000   0.2500000   0.5000000), wk =   0.0685537
        k(   47) = (   0.0000000   0.2000000   0.4000000), wk =   0.0713186
        k(   48) = (   0.0000000   0.1500000   0.3000000), wk =   0.0740835
        k(   49) = (  -0.0000000   0.1000000   0.2000000), wk =   0.0768484
        k(   50) = (  -0.0000000   0.0500000   0.1000000), wk =   0.0796133
        k(   51) = (   0.0000000   0.0000000   0.0000000), wk =   0.0823782

     Dense  grid:    12939 G-vectors     FFT dimensions: (  36,  36,  36)

     Largest allocated arrays     est. size (Mb)     dimensions
        Kohn-Sham Wavefunctions         0.60 Mb     (    1639,   24)
        NL pseudopotentials             0.55 Mb     (    1639,   22)
        Each V/rho on FFT grid          0.71 Mb     (   46656)
        Each G-vector array             0.10 Mb     (   12939)
        G-vector shells                 0.00 Mb     (     180)
     Largest temporary arrays     est. size (Mb)     dimensions
        Auxiliary wavefunctions         2.40 Mb     (    1639,   96)
        Each subspace H/S matrix        0.14 Mb     (      96,   96)
        Each <psi_i|beta_j> matrix      0.01 Mb     (      22,   24)

     The potential is recalculated from file :
     ./out/Si.save/charge-density.dat

     Starting wfc are   32 randomized atomic wfcs

     Band Structure Calculation
     Davidson diagonalization with overlap

     ethr =  5.71E-12,  avg # of iterations = 21.1

     total cpu time spent up to now is       65.9 secs

     End of band structure calculation

          k = 0.5000 0.5000 0.5000 (  1622 PWs)   bands (ev):

    -6.5299  -5.0115   2.1085   2.1085   4.0493   4.9209   4.9209   6.9490
    12.8928  12.8928  13.1606  13.4741  13.4741  15.6934  21.2032  21.8894
    22.7077  22.7077  24.0498  24.0498  25.7638  27.2323  28.6657  28.6657

          k = 0.4500 0.4500 0.4500 (  1610 PWs)   bands (ev):

    -6.7849  -4.6880   2.1224   2.1224   4.0616   4.9662   4.9662   7.0043
    12.0468  12.0468  12.8181  14.3935  14.3935  16.0114  19.9845  21.7020
    21.7020  23.0107  24.8574  25.0411  25.0411  28.3382  28.6892  28.6892

          k = 0.4000 0.4000 0.4000 (  1616 PWs)   bands (ev):

    -7.2660  -4.0018   2.1652   2.1652   4.1003   5.0975   5.0975   7.1671
    11.0477  11.0477  12.0955  15.6108  15.6108  16.4611  18.7848  20.2776
    20.2776  22.7124  25.2557  26.3060  26.3060  28.8722  28.8722  29.8573

          k = 0.3500 0.3500 0.3500 (  1610 PWs)   bands (ev):

    -7.7564  -3.1707   2.2407   2.2407   4.1695   5.3000   5.3000   7.4279
    10.1346  10.1346  11.2824  15.9014  16.8570  16.8570  18.7596  18.9151
    18.9151  21.3164  26.8276  27.0244  27.0244  29.3786  29.3786  30.3002

          k = 0.3000 0.3000 0.3000 (  1615 PWs)   bands (ev):

    -8.2026  -2.2506   2.3530   2.3530   4.2739   5.5415   5.5415   7.7692
     9.3450   9.3450  10.4773  14.5651  17.2218  17.2218  18.5526  18.5526
    19.4135  20.1148  27.1574  27.1574  28.4912  29.4278  29.4278  31.2658

          k = 0.2500 0.2500 0.2500 (  1618 PWs)   bands (ev):

    -8.5886  -1.2610   2.5059   2.5059   4.4159   5.7546   5.7546   8.1502
     8.7446   8.7446   9.7315  13.1236  16.0533  16.0533  18.4234  19.8452
    19.8452  20.8382  27.0771  27.0771  29.2321  29.2321  30.0493  31.1746

          k = 0.2000 0.2000 0.2000 (  1606 PWs)   bands (ev):

    -8.9084  -0.2148   2.7007   2.7007   4.5932   5.8170   5.8170   8.3906
     8.4525   8.4525   9.1837  11.7665  14.8462  14.8462  17.1744  21.2916
    21.2916  21.9713  26.9543  26.9543  29.0240  29.0240  30.3453  31.8359

          k = 0.1500 0.1500 0.1500 (  1600 PWs)   bands (ev):

    -9.1590   0.8724   2.9343   2.9343   4.7913   5.6386   5.6386   8.0382
     8.5565   8.5565   9.0606  10.7747  13.7088  13.7088  16.0132  22.7618
    22.7618  23.1274  26.8556  26.8556  28.8313  28.8313  29.8168  31.5957

          k = 0.1000 0.1000 0.1000 (  1606 PWs)   bands (ev):

    -9.3388   1.9701   3.1934   3.1934   4.9640   5.3051   5.3051   7.4487
     8.5176   8.9686   8.9686  10.6996  12.6689  12.6689  14.9818  24.1660
    24.1660  24.2390  26.8408  26.8408  28.6418  28.6418  29.1487  31.4220

          k = 0.0500 0.0500 0.0500 (  1630 PWs)   bands (ev):

    -9.4469   2.9920   3.4364   3.4364   4.9773   4.9773   4.9808   6.9087
     7.8472   9.5150   9.5150  11.1018  11.7851  11.7851  14.1674  25.1902
    25.2577  25.2577  27.0486  27.0486  28.3931  28.3931  28.4708  31.3171

          k = 0.0000 0.0000 0.0000 (  1639 PWs)   bands (ev):

    -9.4830   3.5515   3.5515   3.5515   4.8284   4.8284   4.8284   6.6858
     7.5839   9.8551   9.8551  11.3378  11.3378  11.3378  13.8154  25.6377
    25.6377  25.6377  27.4138  27.4138  28.1158  28.1158  28.1158  31.2820

          k = 0.0000 0.1000 0.0000 (  1627 PWs)   bands (ev):

    -9.4349   3.1747   3.1747   3.2770   4.5822   5.2639   5.2639   6.9406
     7.9171   9.0541   9.9046  11.4186  11.4186  11.8586  14.3357  24.9546
    24.9546  25.6820  26.7102  26.7890  28.5303  28.5303  28.5781  31.6614

          k = 0.0000 0.2000 0.0000 (  1599 PWs)   bands (ev):

    -9.2906   2.5439   2.5439   2.6425   4.0532   6.0667   6.0667   7.0024
     8.3958   8.7059  10.0531  11.6646  11.6646  12.3532  15.7313  23.6451
    23.6451  25.3177  25.8097  25.8153  29.0759  29.0813  29.0813  32.7458

          k = 0.0000 0.3000 0.0000 (  1607 PWs)   bands (ev):

    -9.0506   1.8618   1.9281   1.9281   3.4725   5.9402   6.9570   6.9570
     9.1130   9.7154  10.3005  12.0855  12.0855  12.7406  17.5616  22.2202
    22.2202  23.7935  24.7530  26.0390  29.3244  29.4904  29.4904  34.0183

          k = 0.0000 0.4000 0.0000 (  1607 PWs)   bands (ev):

    -8.7154   1.0057   1.3745   1.3745   2.9294   4.7795   7.8726   7.8726
    10.1806  10.6467  10.8485  12.6937  12.6937  13.1776  19.5854  20.8054
    20.8054  22.2810  23.6837  26.3559  29.1646  29.8487  29.8487  32.3530

          k = 0.0000 0.5000 0.0000 (  1612 PWs)   bands (ev):

    -8.2864   0.0855   0.8969   0.8969   2.4568   3.7756   8.7863   8.7863
    11.0915  11.3263  12.0558  13.4963  13.4963  13.7386  19.4453  19.4453
    20.8241  21.7054  22.6510  26.7714  28.3703  30.0062  30.0062  30.6060

          k = 0.0000 0.6000 0.0000 (  1620 PWs)   bands (ev):

    -7.7648  -0.8911   0.5016   0.5016   2.0697   2.9735   9.6882   9.6882
    11.6346  12.4414  13.2876  14.4768  14.4768  14.4984  18.1739  18.1739
    19.4412  21.7119  23.8313  26.9733  27.2556  28.2580  28.2580  29.2906

          k = 0.0000 0.7000 0.0000 (  1632 PWs)   bands (ev):

    -7.1529  -1.9003   0.1918   0.1918   1.7764   2.3696  10.5839  10.5839
    12.2758  13.4246  14.4545  15.4905  15.4905  15.5370  17.1296  17.1296
    18.1412  20.9623  25.2787  25.7515  26.2603  26.2603  26.8235  28.7162

          k = 0.0000 0.8000 0.0000 (  1624 PWs)   bands (ev):

    -6.4537  -2.9090  -0.0306  -0.0306   1.5831   1.9411  11.4879  11.4879
    13.0145  14.2523  15.3633  15.3924  15.3924  16.8508  16.9293  17.4337
    17.4337  20.5995  23.4973  24.3151  24.3151  25.0810  27.2053  30.1410

          k = 0.0000 0.9000 0.0000 (  1608 PWs)   bands (ev):

    -5.6715  -3.8871  -0.1644  -0.1644   1.4952   1.6636  12.4134  12.4134
    13.8502  14.4259  14.4259  14.9574  15.7268  15.8089  18.3589  18.7928
    18.7928  20.9061  21.7287  22.4884  22.4884  23.4017  28.1583  29.6982

          k = 0.0000 1.0000 0.0000 (  1604 PWs)   bands (ev):

    -4.8128  -4.8128  -0.2091  -0.2091   1.5192   1.5192  13.2221  13.2221
    13.5803  13.5803  14.7820  14.7820  15.5069  15.5069  19.8956  19.8956
    19.9925  19.9925  21.2517  21.2517  21.9423  21.9423  28.9539  28.9539

          k = 0.0000 0.9750 0.0750 (  1618 PWs)   bands (ev):

    -5.0146  -4.5697  -0.4194  -0.4110   1.7720   1.8069  12.5080  12.9225
    13.2390  13.6746  14.8177  15.2645  15.7583  16.0291  19.0049  19.5372
    20.1968  20.2546  21.3731  21.7395  21.8920  22.5291  28.4480  28.8161

          k = 0.0000 0.9500 0.1500 (  1622 PWs)   bands (ev):

    -5.1704  -4.2954  -0.8523  -0.8062   2.3712   2.4253  11.2285  12.1501
    12.9443  13.9321  14.7855  15.5315  16.4933  17.1589  18.0373  19.0922
    19.9600  20.4986  21.6607  22.0478  22.9651  23.4211  27.5164  28.2234

          k =-0.0000 0.9250 0.2250 (  1622 PWs)   bands (ev):

    -5.2786  -4.0111  -1.3158  -1.1896   3.1217   3.1870   9.8982  11.2680
    12.7204  14.1436  14.7656  15.6977  16.8359  17.6634  18.0518  18.8670
    19.9434  20.6552  22.1921  22.3709  24.2950  24.4055  26.4039  27.4741

          k =-0.0000 0.9000 0.3000 (  1623 PWs)   bands (ev):

    -5.3393  -3.7613  -1.7471  -1.4602   3.9579   4.0256   8.5939  10.3968
    12.4953  14.1010  14.9529  15.7661  16.2353  18.0662  18.3890  19.1740
    20.4920  20.7905  22.7729  22.9281  25.2118  25.4026  25.4912  26.9177

          k = 0.0000 0.8750 0.3750 (  1614 PWs)   bands (ev):

    -5.3547  -3.6185  -2.1236  -1.5284   4.8521   4.8848   7.3736   9.5667
    12.2424  13.7515  15.3208  15.7221  15.7917  18.0337  19.1710  19.3340
    20.9567  21.4197  23.1771  23.5339  24.3731  25.4736  26.1838  27.7257

          k = 0.0000 0.8500 0.4500 (  1612 PWs)   bands (ev):

    -5.3285  -3.6306  -2.4331  -1.3426   5.3877   5.7765   6.6180   8.8042
    11.9423  13.1900  15.5952  15.6320  15.7901  18.1499  19.4960  19.8938
    21.1734  22.2208  22.6616  23.3176  25.0988  25.1564  26.5664  28.5379

          k = 0.0000 0.8250 0.5250 (  1611 PWs)   bands (ev):

    -5.2668  -3.7543  -2.6654  -0.9496   4.6161   6.6350   7.2521   8.2021
    11.5881  12.5362  15.5900  15.6108  16.2855  18.3283  19.7424  20.5143
    21.2912  21.7215  22.3945  23.2888  24.9340  26.0379  26.5363  27.9451

          k =-0.0000 0.8000 0.6000 (  1614 PWs)   bands (ev):

    -5.1780  -3.9175  -2.8104  -0.4385   3.5753   6.8727   8.2870   8.3079
    11.1912  11.8718  15.6506  15.7343  16.8280  18.4842  20.0566  20.1727
    21.2256  21.7374  21.9366  23.4900  24.6322  25.1724  27.3377  27.3686

          k =-0.0000 0.7750 0.6750 (  1621 PWs)   bands (ev):

    -5.0718  -4.0762  -2.8571   0.0834   2.6376   6.4093   9.1830   9.4056
    10.7825  11.2399  15.8294  15.9327  17.3989  18.5476  19.0871  20.1707
    21.1742  21.6897  22.3415  23.1068  24.0725  24.6244  26.8831  26.9273

          k = 0.0000 0.7500 0.7500 (  1624 PWs)   bands (ev):

    -4.9567  -4.2109  -2.7970   0.3202   2.1135   5.8606  10.0171  10.4072
    10.5651  10.8163  16.1219  16.1672  17.8176  18.2111  18.3729  19.6871
    21.2008  21.7997  22.5680  22.6460  23.4678  24.7358  26.4369  26.7376

          k = 0.0000 0.7250 0.7750 (  1616 PWs)   bands (ev):

    -4.9507  -4.2087  -2.7912   0.2193   2.2280   5.8645   9.8259  10.1269
    10.7568  11.1041  16.1316  16.1625  17.5762  18.3153  18.4733  19.7062
    21.1523  21.6599  22.6588  22.7195  23.5433  24.7472  26.4359  26.7223

          k = 0.0000 0.7000 0.8000 (  1621 PWs)   bands (ev):

    -4.9327  -4.2022  -2.7739  -0.0287   2.5173   5.8760   9.4937   9.7174
    11.0903  11.5354  16.1428  16.1592  17.2381  18.1663  18.8799  19.7210
    21.0726  21.3573  22.8256  22.8836  23.7664  24.7789  26.4329  26.6761

          k = 0.0000 0.6750 0.8250 (  1620 PWs)   bands (ev):

    -4.9028  -4.1925  -2.7451  -0.3433   2.9013   5.8946   9.1418   9.3044
    11.4438  11.9828  16.0869  16.1999  16.9448  17.9715  19.3110  19.6526
    21.0050  21.0695  22.8893  23.1688  24.0958  24.8208  26.4291  26.6023

          k = 0.0000 0.6500 0.8500 (  1616 PWs)   bands (ev):

    -4.8609  -4.1812  -2.7048  -0.6787   3.3354   5.9191   8.7909   8.8994
    11.7964  12.4310  15.9576  16.2425  16.7494  17.7704  19.4758  19.7506
    20.6446  21.1800  22.9224  23.4684  24.4722  24.8461  26.4288  26.5211

          k = 0.0000 0.6250 0.8750 (  1616 PWs)   bands (ev):

    -4.8070  -4.1714  -2.6530  -1.0123   3.7982   5.9476   8.4485   8.5066
    12.1405  12.8682  15.7475  16.2656  16.6703  17.5985  19.2303  20.1323
    20.3524  21.3692  22.9401  23.7572  24.7999  24.8454  26.4460  26.4860

          k = 0.0000 0.6000 0.9000 (  1613 PWs)   bands (ev):

    -4.7412  -4.1671  -2.5898  -1.3305   4.2779   5.9769   8.1206   8.1296
    12.4713  13.2746  15.5098  16.2379  16.6726  17.4893  18.9643  19.8996
    20.6879  21.5961  22.9494  24.0211  24.6222  25.1555  26.5181  26.5673

          k = 0.0000 0.5750 0.9250 (  1615 PWs)   bands (ev):

    -4.6635  -4.1749  -2.5153  -1.6220   4.7637   6.0010   7.7748   7.8148
    12.7849  13.6078  15.3162  16.1365  16.7246  17.4512  18.7218  19.5697
    21.1328  21.8336  22.9547  24.1903  24.3733  25.3239  26.7075  26.7871

          k = 0.0000 0.5500 0.9500 (  1615 PWs)   bands (ev):

    -4.5740  -4.2030  -2.4295  -1.8756   5.2390   6.0097   7.4565   7.5422
    13.0779  13.7888  15.2515  15.9711  16.8163  17.4319  18.5626  19.2563
    21.5662  22.0597  22.9622  23.8412  24.5303  25.3173  27.0350  27.1148

          k = 0.0000 0.5250 0.9750 (  1615 PWs)   bands (ev):

    -4.4726  -4.2617  -2.3326  -2.0798   5.6607   5.9864   7.2161   7.3205
    13.3464  13.7615  15.3608  15.7701  16.9527  17.3403  18.5595  18.9699
    21.9545  22.2356  22.9905  23.3984  24.7499  25.1798  27.4446  27.5082

          k = 0.0000 0.5000 1.0000 (  1628 PWs)   bands (ev):

    -4.3594  -4.3594  -2.2248  -2.2248   5.9106   5.9106   7.1706   7.1706
    13.5849  13.5849  15.5610  15.5610  17.1481  17.1481  18.7211  18.7211
    22.2276  22.2276  23.0879  23.0879  24.9716  24.9716  27.7975  27.7975

          k = 0.0000 0.4500 0.9000 (  1616 PWs)   bands (ev):

    -4.9998  -3.8507  -2.4068  -1.6937   5.5104   5.7159   6.8137   8.3353
    12.5150  13.7545  15.3024  15.8896  16.1091  17.9259  18.8002  19.8628
    21.0016  22.4430  22.9571  23.2588  24.7875  25.6501  26.0898  28.4686

          k =-0.0000 0.4000 0.8000 (  1616 PWs)   bands (ev):

    -5.8113  -3.2745  -2.1975  -1.0177   5.1815   5.2461   6.6061   9.9344
    11.4245  12.7348  15.0895  15.1947  16.1489  18.3771  18.7658  20.1589
    21.5742  21.8404  22.9622  23.5013  23.9754  25.7852  27.1675  28.6948

          k =-0.0000 0.3500 0.7000 (  1618 PWs)   bands (ev):

    -6.6197  -2.6236  -1.7667  -0.2231   4.8450   4.9555   6.5269  10.1940
    11.6044  11.7319  14.1827  14.4143  16.8337  17.2645  18.1243  20.0647
    21.1588  23.0232  23.1953  23.8493  24.6295  26.7901  27.1552  28.8980

          k =-0.0000 0.3000 0.6000 (  1609 PWs)   bands (ev):

    -7.3564  -1.8907  -1.1827   0.6461   4.5480   4.8776   6.5413   9.2102
    10.5609  12.4887  13.3931  14.6365  15.0814  16.5945  18.1150  19.6281
    20.7997  23.1654  24.1485  25.0967  25.1718  26.7814  27.5532  29.9710

          k = 0.0000 0.2500 0.5000 (  1610 PWs)   bands (ev):

    -7.9958  -1.0709  -0.4743   1.5146   4.3634   5.0169   6.5891   8.2639
     9.6864  11.9424  12.7220  13.3151  14.9265  16.3546  17.4766  19.7944
    21.8439  21.9444  24.2418  24.5528  26.9417  28.5016  29.0971  30.9154

          k = 0.0000 0.2000 0.4000 (  1613 PWs)   bands (ev):

    -8.5267  -0.1636   0.3396   2.2693   4.2936   5.4692   6.5560   7.3872
     9.0872  11.1091  11.6363  12.1876  13.4731  16.0171  18.4175  19.8354
    21.0015  23.0056  24.4099  25.0078  27.7788  30.1399  31.2629  31.4524

          k = 0.0000 0.1500 0.3000 (  1607 PWs)   bands (ev):

    -8.9433   0.8248   1.2364   2.8252   4.3379   6.1995   6.3861   6.5850
     8.8180  10.0946  10.1924  11.7676  12.4089  14.6217  17.7620  20.5889
    22.3204  24.2365  24.7630  25.5327  28.2217  30.2018  30.7351  32.6075

          k =-0.0000 0.1000 0.2000 (  1600 PWs)   bands (ev):

    -9.2427   1.8741   2.1765   3.2060   4.4882   5.8343   5.8555   7.2314
     8.4683   8.9699   9.5435  11.4867  11.7698  13.3337  15.8829  22.7640
    23.6842  25.1591  25.4923  26.1346  28.4886  29.4320  29.6653  32.5086

          k =-0.0000 0.0500 0.1000 (  1623 PWs)   bands (ev):

    -9.4229   2.9157   3.0645   3.4563   4.7033   5.2042   5.2695   7.0248
     8.0010   9.0398   9.7140  11.3548  11.4402  12.1362  14.4189  24.7102
    24.9593  25.4971  26.6806  26.8244  28.4454  28.6488  28.6735  31.6365

          k = 0.0000 0.0000 0.0000 (  1639 PWs)   bands (ev):

    -9.4830   3.5515   3.5515   3.5515   4.8284   4.8284   4.8284   6.6858
     7.5839   9.8551   9.8551  11.3378  11.3378  11.3378  13.8154  25.6377
    25.6377  25.6377  27.4138  27.4138  28.1158  28.1158  28.1158  31.2820

     Writing output data file Si.save

     init_run     :      0.22s CPU      0.25s WALL (       1 calls)
     electrons    :     60.18s CPU     63.93s WALL (       1 calls)

     Called by init_run:
     wfcinit      :      0.00s CPU      0.00s WALL (       1 calls)
     potinit      :      0.07s CPU      0.08s WALL (       1 calls)

     Called by electrons:
     c_bands      :     60.18s CPU     63.93s WALL (       1 calls)
     v_of_rho     :      0.05s CPU      0.06s WALL (       1 calls)

     Called by c_bands:
     init_us_2    :      0.08s CPU      0.09s WALL (      51 calls)
     cegterg      :     54.73s CPU     58.02s WALL (      74 calls)

     Called by *egterg:
     h_psi        :     42.34s CPU     44.98s WALL (    1202 calls)
     g_psi        :      0.12s CPU      0.12s WALL (    1077 calls)
     cdiaghg      :      2.86s CPU      3.05s WALL (    1128 calls)

     Called by h_psi:
     add_vuspsi   :      1.21s CPU      1.27s WALL (    1202 calls)

     General routines
     calbec       :      1.34s CPU      1.43s WALL (    1202 calls)
     fft          :      0.03s CPU      0.04s WALL (      10 calls)
     fftw         :     37.60s CPU     39.97s WALL (   31826 calls)
     davcio       :      0.00s CPU      0.01s WALL (      51 calls)

     Parallel routines
     fft_scatter  :      0.92s CPU      0.96s WALL (   31836 calls)

     PWSCF        :  1m 1.91s CPU     1m 6.06s WALL


   This run was terminated on:  18: 1:32  13Feb2023            

=------------------------------------------------------------------------------=
   JOB DONE.
=------------------------------------------------------------------------------=
