
     Program PWSCF v.5.1 starts on 13Feb2023 at 17:57:27 

     This program is part of the open-source Quantum ESPRESSO suite
     for quantum simulation of materials; please cite
         "P. Giannozzi et al., J. Phys.:Condens. Matter 21 395502 (2009);
          URL http://www.quantum-espresso.org", 
     in publications or presentations arising from this work. More details at
     http://www.quantum-espresso.org/quote

     Parallel version (MPI), running on     1 processors
     Waiting for input...
     Reading input from standard input

     Current dimensions of program PWSCF are:
     Max number of different atomic species (ntypx) = 10
     Max number of k-points (npk) =  40000
     Max angular momentum in pseudopotentials (lmaxx) =  3

     Atomic positions and unit cell read from directory:
     ./out/Si.save/

               file Si.pbe-mt_fhi.UPF: wavefunction(s)  4f renormalized

     Subspace diagonalization in iterative solution of the eigenvalue problem:
     a serial algorithm will be used


     G-vector sticks info
     --------------------
     sticks:   dense  smooth     PW     G-vecs:    dense   smooth      PW
     Sum         733     733    223                12939    12939    2229



     bravais-lattice index     =            2
     lattice parameter (alat)  =      10.2623  a.u.
     unit-cell volume          =     270.1967 (a.u.)^3
     number of atoms/cell      =            2
     number of atomic types    =            1
     number of electrons       =        28.00
     number of Kohn-Sham states=           24
     kinetic-energy cutoff     =      50.0000  Ry
     charge density cutoff     =     200.0000  Ry
     Exchange-correlation      = PBE ( 1  4  3  4 0)

     celldm(1)=  10.262347  celldm(2)=   0.000000  celldm(3)=   0.000000
     celldm(4)=   0.000000  celldm(5)=   0.000000  celldm(6)=   0.000000

     crystal axes: (cart. coord. in units of alat)
               a(1) = (  -0.500000   0.000000   0.500000 )  
               a(2) = (   0.000000   0.500000   0.500000 )  
               a(3) = (  -0.500000   0.500000   0.000000 )  

     reciprocal axes: (cart. coord. in units 2 pi/alat)
               b(1) = ( -1.000000 -1.000000  1.000000 )  
               b(2) = (  1.000000  1.000000  1.000000 )  
               b(3) = ( -1.000000  1.000000 -1.000000 )  


     PseudoPot. # 1 for Si read from file:
     /home/acedemo/psudo/Si.pbe-mt_fhi.UPF
     MD5 check sum: 259057c2adf9952f9ced37ae3d9e311d
     Pseudo is Norm-conserving, Zval =  4.0
     Generated using FHI98PP, converted with fhi2upf.x v.5.0.2
     Using radial grid of  495 points,  3 beta functions with: 
                l(1) =   0
                l(2) =   1
                l(3) =   3

     atomic species   valence    mass     pseudopotential
        Si             4.00    28.08550     Si( 1.00)

     48 Sym. Ops., with inversion, found (24 have fractional translation)



   Cartesian axes

     site n.     atom                  positions (alat units)
         1           Si  tau(   1) = (   0.0000000   0.0000000   0.0000000  )
         2           Si  tau(   2) = (   0.2500000   0.2500000   0.2500000  )

     number of k points=    72 (tetrahedron method)
                       cart. coord. in units 2pi/alat
        k(    1) = (   0.0000000   0.0000000   0.0000000), wk =   0.0011574
        k(    2) = (  -0.0833333   0.0833333  -0.0833333), wk =   0.0092593
        k(    3) = (  -0.1666667   0.1666667  -0.1666667), wk =   0.0092593
        k(    4) = (  -0.2500000   0.2500000  -0.2500000), wk =   0.0092593
        k(    5) = (  -0.3333333   0.3333333  -0.3333333), wk =   0.0092593
        k(    6) = (  -0.4166667   0.4166667  -0.4166667), wk =   0.0092593
        k(    7) = (   0.5000000  -0.5000000   0.5000000), wk =   0.0046296
        k(    8) = (   0.0000000   0.1666667   0.0000000), wk =   0.0069444
        k(    9) = (  -0.0833333   0.2500000  -0.0833333), wk =   0.0277778
        k(   10) = (  -0.1666667   0.3333333  -0.1666667), wk =   0.0277778
        k(   11) = (  -0.2500000   0.4166667  -0.2500000), wk =   0.0277778
        k(   12) = (  -0.3333333   0.5000000  -0.3333333), wk =   0.0277778
        k(   13) = (   0.5833333  -0.4166667   0.5833333), wk =   0.0277778
        k(   14) = (   0.5000000  -0.3333333   0.5000000), wk =   0.0277778
        k(   15) = (   0.4166667  -0.2500000   0.4166667), wk =   0.0277778
        k(   16) = (   0.3333333  -0.1666667   0.3333333), wk =   0.0277778
        k(   17) = (   0.2500000  -0.0833333   0.2500000), wk =   0.0277778
        k(   18) = (   0.1666667  -0.0000000   0.1666667), wk =   0.0138889
        k(   19) = (   0.0000000   0.3333333   0.0000000), wk =   0.0069444
        k(   20) = (  -0.0833333   0.4166667  -0.0833333), wk =   0.0277778
        k(   21) = (  -0.1666667   0.5000000  -0.1666667), wk =   0.0277778
        k(   22) = (  -0.2500000   0.5833333  -0.2500000), wk =   0.0277778
        k(   23) = (   0.6666667  -0.3333333   0.6666667), wk =   0.0277778
        k(   24) = (   0.5833333  -0.2500000   0.5833333), wk =   0.0277778
        k(   25) = (   0.5000000  -0.1666667   0.5000000), wk =   0.0277778
        k(   26) = (   0.4166667  -0.0833333   0.4166667), wk =   0.0277778
        k(   27) = (   0.3333333   0.0000000   0.3333333), wk =   0.0138889
        k(   28) = (   0.0000000   0.5000000   0.0000000), wk =   0.0069444
        k(   29) = (  -0.0833333   0.5833333  -0.0833333), wk =   0.0277778
        k(   30) = (  -0.1666667   0.6666667  -0.1666667), wk =   0.0277778
        k(   31) = (   0.7500000  -0.2500000   0.7500000), wk =   0.0277778
        k(   32) = (   0.6666667  -0.1666667   0.6666667), wk =   0.0277778
        k(   33) = (   0.5833333  -0.0833333   0.5833333), wk =   0.0277778
        k(   34) = (   0.5000000   0.0000000   0.5000000), wk =   0.0138889
        k(   35) = (   0.0000000   0.6666667   0.0000000), wk =   0.0069444
        k(   36) = (  -0.0833333   0.7500000  -0.0833333), wk =   0.0277778
        k(   37) = (   0.8333333  -0.1666667   0.8333333), wk =   0.0277778
        k(   38) = (   0.7500000  -0.0833333   0.7500000), wk =   0.0277778
        k(   39) = (   0.6666667   0.0000000   0.6666667), wk =   0.0138889
        k(   40) = (   0.0000000   0.8333333   0.0000000), wk =   0.0069444
        k(   41) = (   0.9166667  -0.0833333   0.9166667), wk =   0.0277778
        k(   42) = (   0.8333333   0.0000000   0.8333333), wk =   0.0138889
        k(   43) = (   0.0000000  -1.0000000   0.0000000), wk =   0.0034722
        k(   44) = (  -0.1666667   0.3333333   0.0000000), wk =   0.0277778
        k(   45) = (  -0.2500000   0.4166667  -0.0833333), wk =   0.0555556
        k(   46) = (  -0.3333333   0.5000000  -0.1666667), wk =   0.0555556
        k(   47) = (   0.5833333  -0.4166667   0.7500000), wk =   0.0555556
        k(   48) = (   0.5000000  -0.3333333   0.6666667), wk =   0.0277778
        k(   49) = (  -0.1666667   0.5000000   0.0000000), wk =   0.0277778
        k(   50) = (  -0.2500000   0.5833333  -0.0833333), wk =   0.0555556
        k(   51) = (   0.6666667  -0.3333333   0.8333333), wk =   0.0555556
        k(   52) = (   0.5833333  -0.2500000   0.7500000), wk =   0.0555556
        k(   53) = (   0.5000000  -0.1666667   0.6666667), wk =   0.0555556
        k(   54) = (   0.4166667  -0.0833333   0.5833333), wk =   0.0555556
        k(   55) = (   0.3333333   0.0000000   0.5000000), wk =   0.0277778
        k(   56) = (  -0.1666667   0.6666667  -0.0000000), wk =   0.0277778
        k(   57) = (   0.7500000  -0.2500000   0.9166667), wk =   0.0555556
        k(   58) = (   0.6666667  -0.1666667   0.8333333), wk =   0.0555556
        k(   59) = (   0.5833333  -0.0833333   0.7500000), wk =   0.0555556
        k(   60) = (   0.5000000   0.0000000   0.6666667), wk =   0.0277778
        k(   61) = (   0.8333333  -0.1666667   1.0000000), wk =   0.0277778
        k(   62) = (   0.7500000  -0.0833333   0.9166667), wk =   0.0555556
        k(   63) = (   0.6666667   0.0000000   0.8333333), wk =   0.0277778
        k(   64) = (  -0.1666667  -1.0000000   0.0000000), wk =   0.0138889
        k(   65) = (   0.6666667  -0.3333333   1.0000000), wk =   0.0277778
        k(   66) = (   0.5833333  -0.2500000   0.9166667), wk =   0.0555556
        k(   67) = (   0.5000000  -0.1666667   0.8333333), wk =   0.0277778
        k(   68) = (   0.6666667  -0.1666667   1.0000000), wk =   0.0277778
        k(   69) = (   0.5833333  -0.0833333   0.9166667), wk =   0.0555556
        k(   70) = (   0.5000000   0.0000000   0.8333333), wk =   0.0277778
        k(   71) = (  -0.3333333  -1.0000000   0.0000000), wk =   0.0138889
        k(   72) = (  -0.5000000  -1.0000000   0.0000000), wk =   0.0069444

     Dense  grid:    12939 G-vectors     FFT dimensions: (  36,  36,  36)

     Largest allocated arrays     est. size (Mb)     dimensions
        Kohn-Sham Wavefunctions         0.60 Mb     (    1639,   24)
        NL pseudopotentials             0.55 Mb     (    1639,   22)
        Each V/rho on FFT grid          0.71 Mb     (   46656)
        Each G-vector array             0.10 Mb     (   12939)
        G-vector shells                 0.00 Mb     (     180)
     Largest temporary arrays     est. size (Mb)     dimensions
        Auxiliary wavefunctions         2.40 Mb     (    1639,   96)
        Each subspace H/S matrix        0.14 Mb     (      96,   96)
        Each <psi_i|beta_j> matrix      0.01 Mb     (      22,   24)

     The potential is recalculated from file :
     ./out/Si.save/charge-density.dat

     Starting wfc are   32 randomized atomic wfcs

     Band Structure Calculation
     Davidson diagonalization with overlap

     ethr =  5.71E-12,  avg # of iterations = 22.0

     total cpu time spent up to now is       88.0 secs

     End of band structure calculation

          k = 0.0000 0.0000 0.0000 (  1639 PWs)   bands (ev):

    -9.4830   3.5515   3.5515   3.5515   4.8284   4.8284   4.8284   6.6858
     7.5839   9.8551   9.8551  11.3378  11.3378  11.3378  13.8154  25.6377
    25.6377  25.6377  27.4138  27.4138  28.1158  28.1158  28.1158  31.2820

          k =-0.0833 0.0833-0.0833 (  1612 PWs)   bands (ev):

    -9.3828   2.3272   3.2798   3.2798   4.9967   5.1873   5.1873   7.2529
     8.2687   9.1456   9.1456  10.8200  12.3514  12.3514  14.6787  24.5835
    24.5854  24.5854  26.8744  26.8744  28.5706  28.5706  28.9148  31.3793

          k =-0.1667 0.1667-0.1667 (  1591 PWs)   bands (ev):

    -9.0832   0.5068   2.8526   2.8526   4.7248   5.7229   5.7229   8.2105
     8.4799   8.4799   9.0995  11.0276  14.0785  14.0785  16.3881  22.2732
    22.2732  22.7436  26.8827  26.8827  28.8939  28.8939  30.0156  31.6686

          k =-0.2500 0.2500-0.2500 (  1618 PWs)   bands (ev):

    -8.5886  -1.2610   2.5059   2.5059   4.4159   5.7546   5.7546   8.1502
     8.7446   8.7446   9.7315  13.1236  16.0533  16.0533  18.4234  19.8452
    19.8452  20.8382  27.0771  27.0771  29.2321  29.2321  30.0493  31.1746

          k =-0.3333 0.3333-0.3333 (  1616 PWs)   bands (ev):

    -7.9112  -2.8726   2.2738   2.2738   4.2002   5.3785   5.3785   7.5339
     9.8553   9.8553  11.0105  15.4901  17.2224  17.2224  18.5369  18.5369
    18.9903  20.8521  27.1127  27.1127  27.3804  29.4648  29.4648  30.5666

          k =-0.4167 0.4167-0.4167 (  1616 PWs)   bands (ev):

    -7.0994  -4.2519   2.1475   2.1475   4.0842   5.0449   5.0449   7.1013
    11.3732  11.3732  12.3549  15.1970  15.1970  16.3609  19.1097  20.7534
    20.7534  23.0844  24.8456  25.9187  25.9187  28.7762  28.7762  29.3693

          k = 0.5000-0.5000 0.5000 (  1622 PWs)   bands (ev):

    -6.5299  -5.0115   2.1085   2.1085   4.0493   4.9209   4.9209   6.9490
    12.8928  12.8928  13.1606  13.4741  13.4741  15.6934  21.2032  21.8894
    22.7077  22.7077  24.0498  24.0498  25.7638  27.2323  28.6657  28.6657

          k = 0.0000 0.1667 0.0000 (  1615 PWs)   bands (ev):

    -9.3494   2.7573   2.7573   2.8772   4.2428   5.7839   5.7839   7.1265
     8.4106   8.4436   9.9926  11.5638  11.5638  12.2120  15.1977  24.1061
    24.1061  25.7609  25.8100  26.1491  28.9161  28.9161  28.9319  32.3188

          k =-0.0833 0.2500-0.0833 (  1599 PWs)   bands (ev):

    -9.1161   1.1543   2.2696   2.7038   4.3490   5.9330   6.4438   6.7808
     8.8633   9.4628   9.5766  11.1263  12.7218  13.6409  16.7621  22.1650
    22.4187  24.7256  25.3437  25.8751  28.7619  29.2839  30.2773  32.7571

          k =-0.1667 0.3333-0.1667 (  1610 PWs)   bands (ev):

    -8.6861  -0.6223   1.9147   2.2793   4.5708   5.7619   6.6327   6.6667
     9.3912   9.5534  10.0097  12.4288  14.5604  15.6178  18.6679  19.7204
    20.2865  22.7876  25.5048  26.0999  28.7050  29.6596  30.9615  31.4711

          k =-0.2500 0.4167-0.2500 (  1606 PWs)   bands (ev):

    -8.0677  -2.2829   1.7153   1.8743   4.3453   5.4686   6.2985   7.4465
     8.8931  10.4669  11.2796  14.7061  16.4686  17.5340  17.6695  18.3642
    20.3249  21.2895  25.7900  26.4307  27.5771  29.0050  30.1031  30.8467

          k =-0.3333 0.5000-0.3333 (  1616 PWs)   bands (ev):

    -7.2896  -3.7481   1.5272   1.6731   4.1357   5.2434   5.8103   7.9152
     9.3831  11.8816  12.6372  14.9760  15.6469  17.3571  18.9950  19.1161
    20.4313  23.2200  24.9632  25.9163  26.3470  27.4129  29.2366  30.0926

          k = 0.5833-0.4167 0.5833 (  1615 PWs)   bands (ev):

    -6.5317  -4.8206   1.2532   1.7787   4.1302   5.1155   5.4407   7.8500
    10.8662  12.8036  13.3241  13.7205  14.6622  16.6509  20.4318  21.5549
    21.9026  23.0519  23.9035  25.0126  25.8987  27.3141  27.5718  28.5578

          k = 0.5000-0.3333 0.5000 (  1616 PWs)   bands (ev):

    -6.7469  -4.5420   1.0798   2.0130   4.3349   5.0970   5.2642   7.9468
    11.0240  11.4745  13.1533  14.2826  15.5691  16.6175  19.3880  20.8715
    22.4635  23.0945  24.4334  25.0255  25.6059  27.1416  28.1348  28.9633

          k = 0.4167-0.2500 0.4167 (  1611 PWs)   bands (ev):

    -7.5630  -3.2852   1.0360   2.3483   4.6570   5.2658   5.2994   8.1879
     9.4121  10.2351  12.7997  14.9831  16.3789  17.6288  17.9401  19.1470
    20.2642  22.1750  25.8594  26.0838  26.6115  27.8562  29.6004  30.0650

          k = 0.3333-0.1667 0.3333 (  1605 PWs)   bands (ev):

    -8.2941  -1.7453   1.1433   2.7513   4.9533   5.4778   5.7005   8.0511
     8.1490   9.6326  11.4339  13.8447  15.6020  17.5307  17.7772  19.6340
    20.1481  20.9115  25.6838  26.3247  28.8821  29.3871  29.4060  31.3598

          k = 0.2500-0.0833 0.2500 (  1600 PWs)   bands (ev):

    -8.8512  -0.0378   1.4162   3.1777   5.2401   5.4558   6.0087   7.5286
     7.6262   9.8486  10.3323  11.7671  13.4865  15.7702  17.6549  19.8625
    22.4561  22.6185  25.3743  26.1873  28.8263  29.3932  31.2916  31.9714

          k = 0.1667-0.0000 0.1667 (  1592 PWs)   bands (ev):

    -9.2161   1.6301   1.9711   3.4793   5.0883   5.3775   5.6028   7.6490
     8.1239   9.1110   9.3637  11.4647  11.8373  13.9198  15.8537  22.3067
    24.0835  24.4029  25.5666  26.4098  28.5787  29.1096  30.0573  32.4460

          k = 0.0000 0.3333 0.0000 (  1607 PWs)   bands (ev):

    -8.9494   1.5837   1.7357   1.7357   3.2851   5.5423   7.2611   7.2611
     9.4522  10.0822  10.4049  12.2668  12.2668  12.8765  18.2207  21.7446
    21.7446  23.2850  24.3955  26.1340  29.3277  29.6121  29.6121  33.5709

          k =-0.0833 0.4167-0.0833 (  1616 PWs)   bands (ev):

    -8.5850   0.0772   1.3404   1.4445   3.3944   4.8966   7.4743   7.7844
    10.4694  10.6155  10.9030  12.2702  13.5042  14.5492  19.7229  20.0056
    20.1191  22.9637  23.8902  25.5350  28.5994  29.9374  30.6365  31.5329

          k =-0.1667 0.5000-0.1667 (  1611 PWs)   bands (ev):

    -8.0289  -1.5612   0.8949   1.1096   3.3985   5.3960   7.2687   7.5998
    10.4670  11.1780  11.9490  14.0337  15.3522  16.7902  17.3878  18.1716
    21.8462  23.2077  23.2630  24.8923  27.0666  29.3680  30.1966  30.6011

          k =-0.2500 0.5833-0.2500 (  1610 PWs)   bands (ev):

    -7.2992  -3.0703   0.3645   1.0504   3.2284   6.4140   7.0935   7.2675
    10.0302  12.4985  13.2596  14.9046  15.4185  17.1095  17.7589  19.3335
    21.1297  23.6614  24.2052  24.6190  25.2280  27.6889  29.2224  29.3898

          k = 0.6667-0.3333 0.6667 (  1607 PWs)   bands (ev):

    -6.4843  -4.3119  -0.0763   1.1615   3.2531   6.5313   6.6264   8.4468
     9.8507  12.7439  13.4384  14.2253  15.2780  18.5525  19.7797  20.1303
    21.3426  22.5563  23.9296  24.7361  25.7100  26.8061  28.2033  28.6601

          k = 0.5833-0.2500 0.5833 (  1602 PWs)   bands (ev):

    -6.2735  -4.5811  -0.3866   1.4350   3.5086   6.3054   6.4009   9.5334
    10.2306  10.8513  12.2458  16.0645  16.3301  17.5492  18.8896  21.7793
    22.1830  22.5881  23.6508  24.4637  25.9985  26.4067  27.1786  28.6035

          k = 0.5000-0.1667 0.5000 (  1610 PWs)   bands (ev):

    -7.0318  -3.5108  -0.5390   1.8530   3.9774   6.1564   6.3372   9.1571
     9.1572  10.6700  12.8545  15.3525  16.3233  18.0856  18.1728  19.6633
    22.1213  23.7695  23.8289  25.0258  25.1967  26.2287  28.8989  29.2147

          k = 0.4167-0.0833 0.4167 (  1613 PWs)   bands (ev):

    -7.8070  -2.0669  -0.5099   2.3775   4.6220   6.1306   6.3625   7.7922
     8.0176  11.0502  13.4790  14.1251  15.2446  16.0792  19.4709  20.4883
    20.7816  21.9900  23.4577  24.9031  27.5191  28.6182  29.4522  30.1774

          k = 0.3333 0.0000 0.3333 (  1604 PWs)   bands (ev):

    -8.4229  -0.6072  -0.1297   2.9128   5.3336   5.8666   6.2132   7.2051
     7.2205  11.1731  12.2258  12.3304  13.9666  17.4113  17.6750  19.4499
    22.1796  22.4117  23.4250  25.1538  28.9941  29.5790  30.1030  31.7670

          k = 0.0000 0.5000 0.0000 (  1612 PWs)   bands (ev):

    -8.2864   0.0855   0.8969   0.8969   2.4568   3.7756   8.7863   8.7863
    11.0915  11.3263  12.0558  13.4963  13.4963  13.7386  19.4453  19.4453
    20.8241  21.7054  22.6510  26.7714  28.3703  30.0062  30.0062  30.6060

          k =-0.0833 0.5833-0.0833 (  1617 PWs)   bands (ev):

    -7.7944  -1.0208   0.1793   0.6177   2.5515   3.5901   9.0205   9.0565
    11.7513  12.4720  12.6179  13.8425  14.7495  15.8417  17.4976  17.9963
    20.6563  22.2955  23.5022  26.2745  26.6462  28.6531  28.6761  29.5959

          k =-0.1667 0.6667-0.1667 (  1620 PWs)   bands (ev):

    -7.1211  -2.3625  -0.6405   0.5135   2.4758   4.6500   8.6450   8.7865
    12.0668  13.0642  14.0015  14.9525  15.1067  16.7380  16.9027  18.4357
    21.0663  22.3241  23.9198  24.2958  26.1830  27.3168  27.5445  28.3681

          k = 0.7500-0.2500 0.7500 (  1617 PWs)   bands (ev):

    -6.3138  -3.6292  -1.2803   0.5864   2.4981   6.1168   8.1436   8.5337
    11.6746  12.8284  13.8113  14.7588  15.7485  18.2550  19.0298  20.4846
    21.4481  21.5275  21.8625  24.2715  25.6053  26.3035  26.9631  28.1840

          k = 0.6667-0.1667 0.6667 (  1607 PWs)   bands (ev):

    -5.7550  -4.3365  -1.7304   0.8329   2.7362   7.4320   7.7472   8.6826
    10.8597  10.9014  12.9622  16.6006  17.0200  18.4583  19.6239  21.0875
    21.1640  22.0482  22.5246  23.6705  25.8189  25.8230  26.1458  27.9258

          k = 0.5833-0.0833 0.5833 (  1611 PWs)   bands (ev):

    -6.3383  -3.5688  -1.9770   1.2415   3.1878   7.4934   7.6844   9.1011
     9.3271  10.3302  13.0173  15.5993  18.1705  18.5687  18.8258  20.2659
    21.3973  23.3426  23.7536  23.7851  25.3917  25.9336  26.7418  27.1104

          k = 0.5000 0.0000 0.5000 (  1604 PWs)   bands (ev):

    -7.1399  -2.4237  -1.8370   1.7839   3.8346   7.1576   7.4338   7.8445
     8.2186  11.8522  13.5358  13.7068  16.3256  17.6133  20.0921  20.2093
    21.5013  22.4285  23.9465  24.0060  25.6407  27.1825  27.8484  28.0787

          k = 0.0000 0.6667 0.0000 (  1624 PWs)   bands (ev):

    -7.3667  -1.5623   0.2854   0.2854   1.8634   2.5502  10.2852  10.2852
    12.0512  13.1153  14.0817  15.1575  15.1790  15.1790  17.4235  17.4235
    18.5649  21.1819  25.1600  25.8604  26.9235  26.9235  27.2244  28.5768

          k =-0.0833 0.7500-0.0833 (  1618 PWs)   bands (ev):

    -6.7539  -2.4442  -0.6259   0.1280   1.9384   2.8500  10.3489  10.5127
    13.2265  14.0994  14.3707  15.1233  15.5006  16.3300  16.8899  17.8157
    18.5778  21.1105  23.5524  25.3283  25.3831  26.2453  26.7532  28.6330

          k = 0.8333-0.1667 0.8333 (  1619 PWs)   bands (ev):

    -5.9835  -3.3272  -1.7670   0.1499   1.9524   4.2280   9.8827  10.2500
    13.0222  13.0650  15.0200  15.0524  15.9650  17.5829  18.3766  19.2811
    19.8655  20.9328  21.9751  24.1640  24.1705  25.3144  26.5016  28.6447

          k = 0.7500-0.0833 0.7500 (  1620 PWs)   bands (ev):

    -5.2455  -4.0576  -2.5775   0.3499   2.1554   5.8900   9.4378   9.9487
    11.0487  11.4103  14.9355  16.9677  17.0152  18.3238  19.1617  19.5315
    21.0550  21.1451  22.8088  23.4923  23.5167  24.8049  25.8321  27.8076

          k = 0.6667 0.0000 0.6667 (  1612 PWs)   bands (ev):

    -5.5554  -3.7448  -2.8543   0.7206   2.5702   7.5799   8.9470   9.3974
     9.7398   9.8577  15.0385  15.2819  18.6622  18.7406  19.5521  20.7561
    20.7956  21.5762  23.2416  23.7667  23.9478  24.5349  27.7546  27.9637

          k = 0.0000 0.8333 0.0000 (  1628 PWs)   bands (ev):

    -6.2019  -3.2397  -0.0851  -0.0851   1.5418   1.8328  11.7938  11.7938
    13.2823  14.5003  15.0883  15.0883  15.5565  16.5456  17.3360  17.8521
    17.8521  20.6169  22.9026  23.6883  23.6883  24.5073  27.5543  30.1743

          k = 0.9167-0.0833 0.9167 (  1622 PWs)   bands (ev):

    -5.4815  -4.0134  -0.9659  -0.1187   1.6248   2.5173  11.7668  12.0168
    13.4115  13.5470  14.8105  15.5844  16.4369  16.5209  17.6310  19.2436
    19.7601  20.5925  21.5621  22.3338  22.5511  23.8746  27.5232  28.9714

          k = 0.8333 0.0000 0.8333 (  1614 PWs)   bands (ev):

    -4.7710  -4.5449  -2.0932   0.0279   1.7842   4.0899  11.1867  11.5348
    11.6630  11.8157  16.4427  16.8077  17.0317  17.2628  18.0247  18.3037
    20.7083  21.1063  21.7965  22.1795  23.8153  23.8205  26.1443  27.6126

          k = 0.0000-1.0000 0.0000 (  1604 PWs)   bands (ev):

    -4.8128  -4.8128  -0.2091  -0.2091   1.5192   1.5192  13.2221  13.2221
    13.5803  13.5803  14.7820  14.7820  15.5069  15.5069  19.8956  19.8956
    19.9925  19.9925  21.2517  21.2517  21.9423  21.9423  28.9539  28.9539

          k =-0.1667 0.3333 0.0000 (  1603 PWs)   bands (ev):

    -8.8174   0.4871   0.9301   2.6624   4.3107   5.9646   6.4262   6.8441
     8.8820  10.4533  10.6317  11.8924  12.7130  15.0749  18.4393  19.8592
    21.8715  23.8208  24.6362  25.3495  28.0933  30.3885  31.1003  32.0283

          k =-0.2500 0.4167-0.0833 (  1607 PWs)   bands (ev):

    -8.3241  -1.0691   0.4357   2.2435   4.5390   5.8357   6.2831   7.1085
     9.0707  10.6730  12.0169  13.0212  14.5348  17.0566  17.4765  20.1793
    20.4032  22.8715  23.8335  25.5098  27.7991  29.3865  30.6628  31.1426

          k =-0.3333 0.5000-0.1667 (  1604 PWs)   bands (ev):

    -7.6485  -2.6485   0.2519   1.7426   4.4115   5.4500   6.9529   7.2423
     9.6569  10.6774  13.3461  14.6739  15.7231  16.8169  18.0759  19.5067
    20.7895  22.8217  24.0592  25.6964  26.2944  28.1248  29.0861  29.9264

          k = 0.5833-0.4167 0.7500 (  1612 PWs)   bands (ev):

    -6.8385  -4.0149   0.2032   1.3498   4.3535   5.0174   6.8109   8.5458
     9.6308  11.7703  13.0796  14.7841  15.9310  17.6858  18.8018  20.0278
    21.7156  23.3797  24.3704  24.9606  25.5834  26.5878  28.4240  28.7910

          k = 0.5000-0.3333 0.6667 (  1602 PWs)   bands (ev):

    -6.2686  -4.7719   0.2076   1.1935   4.3831   4.8114   6.7643   8.9967
    10.3031  11.2502  13.5984  14.0596  16.2954  17.3212  20.0360  20.9942
    22.3993  22.6291  23.7878  24.5588  26.2847  26.7566  27.0560  28.5122

          k =-0.1667 0.5000 0.0000 (  1617 PWs)   bands (ev):

    -8.1570  -0.5807   0.0781   1.2837   3.5145   4.3880   7.5427   8.5348
    10.3550  11.9358  12.3826  12.7049  14.2266  16.0520  17.5562  19.5889
    21.6714  21.8256  23.7310  25.3162  27.4372  29.1236  29.5875  31.2794

          k =-0.2500 0.5833-0.0833 (  1611 PWs)   bands (ev):

    -7.5418  -1.9279  -0.4362   0.7554   3.6497   5.0274   7.0642   8.7676
    10.9940  11.8268  13.7800  14.2564  15.4888  16.1241  17.7101  18.6551
    21.4670  23.0251  23.9589  24.9557  25.5086  27.7491  28.1449  29.9523

          k = 0.6667-0.3333 0.8333 (  1617 PWs)   bands (ev):

    -6.7675  -3.3193  -0.7178   0.3933   3.6298   6.0678   6.8816   8.6490
    11.1131  12.3074  13.2902  15.2317  15.9583  16.8264  18.7825  20.6126
    21.1754  22.4086  22.9673  24.7668  26.0046  26.6554  27.0378  28.7501

          k = 0.5833-0.2500 0.7500 (  1607 PWs)   bands (ev):

    -6.0116  -4.3651  -0.9948   0.3699   3.7853   5.9236   8.0156   8.7225
    10.2857  11.5549  13.7696  14.4797  17.2359  18.7785  19.4650  20.3327
    21.4787  22.0187  23.6373  24.0438  25.4932  26.0848  27.3491  27.8609

          k = 0.5000-0.1667 0.6667 (  1605 PWs)   bands (ev):

    -6.2335  -4.0778  -1.2106   0.6400   4.1265   5.6805   8.2000   8.6836
    10.1800  11.1122  12.5934  16.0750  17.2181  17.7920  19.1120  20.9455
    21.7847  22.1740  23.7995  24.4175  25.2071  26.2856  27.2579  27.5904

          k = 0.4167-0.0833 0.5833 (  1610 PWs)   bands (ev):

    -7.0461  -2.8520  -1.2787   1.1192   4.6274   5.5696   7.1092   8.2205
    10.0113  11.5603  13.0422  14.9000  16.0881  17.6867  18.5367  20.8898
    21.3286  22.3315  24.1806  24.8848  25.1023  26.8139  27.3461  28.7206

          k = 0.3333 0.0000 0.5000 (  1606 PWs)   bands (ev):

    -7.7715  -1.5543  -0.9878   1.7249   5.2254   5.2873   6.1930   7.9489
     9.0610  12.0215  12.9086  14.2788  15.1800  15.7770  18.8159  20.1963
    21.9088  21.9398  23.3899  24.6809  26.8745  28.1986  28.6511  29.8867

          k =-0.1667 0.6667-0.0000 (  1626 PWs)   bands (ev):

    -7.2424  -1.7646  -0.5320   0.0336   2.9313   3.3633   8.6997  10.1916
    12.1010  13.4004  13.9366  14.2377  15.6578  16.1727  16.9143  18.0347
    19.6434  22.1460  24.8462  24.8497  26.0219  26.9763  27.7529  28.6236

          k = 0.7500-0.2500 0.9167 (  1621 PWs)   bands (ev):

    -6.5185  -2.7663  -1.3561  -0.3153   3.0565   4.4594   8.1637  10.4212
    12.4573  13.1417  13.9421  15.4803  15.9884  16.2279  18.1717  19.4601
    20.1692  22.3648  22.4676  24.2302  24.8225  26.9449  27.3134  28.2963

          k = 0.6667-0.1667 0.8333 (  1616 PWs)   bands (ev):

    -5.7090  -3.7976  -2.0083  -0.2779   3.1864   5.9984   7.7337  10.2413
    10.6683  13.0514  14.3022  14.9451  17.5682  18.0281  19.5680  19.8056
    20.4667  22.0070  22.5392  23.5426  24.4876  25.5061  26.3630  28.9750

          k = 0.5833-0.0833 0.7500 (  1614 PWs)   bands (ev):

    -5.5294  -3.9838  -2.4124   0.0060   3.5058   7.0132   8.0300   8.9280
    10.0781  11.6771  14.0574  16.3280  17.0351  19.1980  19.9323  20.1097
    20.9945  22.1541  22.3926  23.8295  24.3019  26.0639  26.8093  27.1292

          k = 0.5000 0.0000 0.6667 (  1621 PWs)   bands (ev):

    -6.2881  -3.1267  -2.4002   0.4878   4.0054   6.7605   7.3088   9.2281
    10.3399  10.4506  14.2832  14.4489  17.9862  18.5329  19.2537  20.4642
    20.9741  23.0069  23.3293  23.7327  25.2334  25.9178  26.4657  28.1715

          k = 0.8333-0.1667 1.0000 (  1617 PWs)   bands (ev):

    -6.0879  -3.2204  -0.8797  -0.6808   2.5993   2.7798   9.9819  11.8029
    12.9984  13.7248  15.1365  15.6785  15.7152  16.3289  17.8771  18.1695
    19.6380  21.3538  21.7963  22.9339  25.1243  25.4768  26.4897  28.8129

          k = 0.7500-0.0833 0.9167 (  1620 PWs)   bands (ev):

    -5.2898  -3.9319  -1.9601  -0.7152   2.7657   4.1831   9.4798  11.0001
    12.0121  13.6620  15.0770  16.0214  16.8601  17.6786  18.5125  19.0590
    19.7611  21.1053  22.2155  22.8667  24.2426  25.0537  25.8276  27.3744

          k = 0.6667 0.0000 0.8333 (  1620 PWs)   bands (ev):

    -4.8902  -4.1888  -2.7329  -0.4542   3.0418   5.9022   9.0243   9.1683
    11.5619  12.1326  16.0537  16.2147  16.8665  17.9034  19.4573  19.6045
    20.8844  21.0947  22.9028  23.2686  24.2187  24.8332  26.4282  26.5742

          k =-0.1667-1.0000 0.0000 (  1622 PWs)   bands (ev):

    -4.7234  -4.7234  -0.9442  -0.9442   2.5405   2.5405  11.4372  11.4372
    13.4442  13.4442  15.2043  15.2043  17.0690  17.0690  18.6841  18.6841
    19.9977  19.9977  22.3860  22.3860  22.8162  22.8162  27.6718  27.6718

          k = 0.6667-0.3333 1.0000 (  1610 PWs)   bands (ev):

    -6.8750  -2.3887  -1.5873   0.0613   4.7338   4.9103   6.5235   9.8691
    11.2428  12.1597  13.9063  14.2841  16.2834  17.5414  17.6746  20.2401
    20.6158  23.2284  23.6640  24.0153  25.2791  26.4955  27.0667  29.2650

          k = 0.5833-0.2500 0.9167 (  1611 PWs)   bands (ev):

    -6.0742  -3.4347  -1.8774  -0.4714   4.8118   5.6513   6.7140   9.9853
    10.5919  12.3097  13.7017  15.7773  16.4325  18.1052  19.4340  20.3192
    21.4252  22.0630  22.9219  23.9842  24.4452  25.7989  27.4012  28.7138

          k = 0.5000-0.1667 0.8333 (  1610 PWs)   bands (ev):

    -5.5009  -4.1497  -1.8950  -0.6757   4.8418   5.5810   7.9609   8.7226
    10.3589  12.9501  14.2676  14.6196  18.2329  18.6014  19.2731  20.3888
    20.5993  22.0676  23.3064  23.9044  24.4762  26.2062  26.4829  27.3084

          k = 0.6667-0.1667 1.0000 (  1618 PWs)   bands (ev):

    -5.7611  -3.3079  -1.8941  -1.2435   4.4048   4.4975   7.6032  10.5504
    11.8090  13.4329  15.3070  15.4780  15.6604  18.0938  18.2189  19.8371
    21.1227  21.4361  22.9190  22.9194  24.3749  26.0738  26.6081  27.9466

          k = 0.5833-0.0833 0.9167 (  1615 PWs)   bands (ev):

    -5.0122  -3.9537  -2.4217  -1.4227   4.6293   5.9863   7.2624   8.6399
    12.1172  13.9534  14.8582  15.4720  17.1063  18.1442  18.4336  20.1378
    20.7154  22.1045  22.6105  23.9696  24.5378  25.5512  25.9360  27.8976

          k = 0.5000 0.0000 0.8333 (  1612 PWs)   bands (ev):

    -5.2909  -3.7055  -2.5972  -1.0981   4.9479   6.3725   6.9527   8.3689
    11.7118  12.7582  15.5921  15.5943  16.1136  18.2678  19.6498  20.3269
    21.3170  21.9511  22.4651  23.2468  24.9972  25.8858  26.4784  28.1396

          k =-0.3333-1.0000 0.0000 (  1618 PWs)   bands (ev):

    -4.5037  -4.5037  -1.8409  -1.8409   4.3231   4.3231   8.9831   8.9831
    13.5340  13.5340  15.4220  15.4220  17.5295  17.5295  18.7841  18.7841
    20.3509  20.3509  24.0107  24.0107  24.6323  24.6323  25.6929  25.6929

          k =-0.5000-1.0000 0.0000 (  1628 PWs)   bands (ev):

    -4.3594  -4.3594  -2.2248  -2.2248   5.9106   5.9106   7.1706   7.1706
    13.5849  13.5849  15.5610  15.5610  17.1481  17.1481  18.7211  18.7211
    22.2276  22.2276  23.0879  23.0879  24.9716  24.9716  27.7975  27.7975

     the Fermi energy is    17.9671 ev

     Writing output data file Si.save

     init_run     :      0.16s CPU      0.16s WALL (       1 calls)
     electrons    :     83.43s CPU     87.37s WALL (       1 calls)

     Called by init_run:
     wfcinit      :      0.00s CPU      0.00s WALL (       1 calls)
     potinit      :      0.05s CPU      0.06s WALL (       1 calls)

     Called by electrons:
     c_bands      :     83.19s CPU     87.13s WALL (       1 calls)
     v_of_rho     :      0.04s CPU      0.05s WALL (       1 calls)

     Called by c_bands:
     init_us_2    :      0.10s CPU      0.13s WALL (      72 calls)
     cegterg      :     75.77s CPU     79.36s WALL (     114 calls)

     Called by *egterg:
     h_psi        :     59.05s CPU     61.92s WALL (    1767 calls)
     g_psi        :      0.16s CPU      0.17s WALL (    1581 calls)
     cdiaghg      :      3.91s CPU      4.07s WALL (    1653 calls)

     Called by h_psi:
     add_vuspsi   :      1.64s CPU      1.74s WALL (    1767 calls)

     General routines
     calbec       :      1.83s CPU      1.93s WALL (    1767 calls)
     fft          :      0.02s CPU      0.02s WALL (      10 calls)
     fftw         :     52.66s CPU     55.20s WALL (   46430 calls)
     davcio       :      0.01s CPU      0.02s WALL (      72 calls)

     Parallel routines
     fft_scatter  :      1.31s CPU      1.36s WALL (   46440 calls)

     PWSCF        :  1m25.53s CPU     1m29.52s WALL


   This run was terminated on:  17:58:57  13Feb2023            

=------------------------------------------------------------------------------=
   JOB DONE.
=------------------------------------------------------------------------------=
