
     Program PWSCF v.5.1 starts on 13Feb2023 at 17:56:42 

     This program is part of the open-source Quantum ESPRESSO suite
     for quantum simulation of materials; please cite
         "P. Giannozzi et al., J. Phys.:Condens. Matter 21 395502 (2009);
          URL http://www.quantum-espresso.org", 
     in publications or presentations arising from this work. More details at
     http://www.quantum-espresso.org/quote

     Parallel version (MPI), running on     1 processors
     Waiting for input...
     Reading input from standard input

     Current dimensions of program PWSCF are:
     Max number of different atomic species (ntypx) = 10
     Max number of k-points (npk) =  40000
     Max angular momentum in pseudopotentials (lmaxx) =  3
               file Si.pbe-mt_fhi.UPF: wavefunction(s)  4f renormalized

     Subspace diagonalization in iterative solution of the eigenvalue problem:
     a serial algorithm will be used


     G-vector sticks info
     --------------------
     sticks:   dense  smooth     PW     G-vecs:    dense   smooth      PW
     Sum         733     733    211                12939    12939    2109



     bravais-lattice index     =            2
     lattice parameter (alat)  =      10.2623  a.u.
     unit-cell volume          =     270.1967 (a.u.)^3
     number of atoms/cell      =            2
     number of atomic types    =            1
     number of electrons       =        28.00
     number of Kohn-Sham states=           24
     kinetic-energy cutoff     =      50.0000  Ry
     charge density cutoff     =     200.0000  Ry
     convergence threshold     =      1.6E-09
     mixing beta               =       0.3000
     number of iterations used =            8  plain     mixing
     Exchange-correlation      = PBE ( 1  4  3  4 0)

     celldm(1)=  10.262347  celldm(2)=   0.000000  celldm(3)=   0.000000
     celldm(4)=   0.000000  celldm(5)=   0.000000  celldm(6)=   0.000000

     crystal axes: (cart. coord. in units of alat)
               a(1) = (  -0.500000   0.000000   0.500000 )  
               a(2) = (   0.000000   0.500000   0.500000 )  
               a(3) = (  -0.500000   0.500000   0.000000 )  

     reciprocal axes: (cart. coord. in units 2 pi/alat)
               b(1) = ( -1.000000 -1.000000  1.000000 )  
               b(2) = (  1.000000  1.000000  1.000000 )  
               b(3) = ( -1.000000  1.000000 -1.000000 )  


     PseudoPot. # 1 for Si read from file:
     /home/acedemo/psudo/Si.pbe-mt_fhi.UPF
     MD5 check sum: 259057c2adf9952f9ced37ae3d9e311d
     Pseudo is Norm-conserving, Zval =  4.0
     Generated using FHI98PP, converted with fhi2upf.x v.5.0.2
     Using radial grid of  495 points,  3 beta functions with: 
                l(1) =   0
                l(2) =   1
                l(3) =   3

     atomic species   valence    mass     pseudopotential
        Si             4.00    28.08550     Si( 1.00)

     48 Sym. Ops., with inversion, found (24 have fractional translation)



   Cartesian axes

     site n.     atom                  positions (alat units)
         1           Si  tau(   1) = (   0.0000000   0.0000000   0.0000000  )
         2           Si  tau(   2) = (   0.2500000   0.2500000   0.2500000  )

     number of k points=    10  Marzari-Vanderbilt smearing, width (Ry)=  0.0500
                       cart. coord. in units 2pi/alat
        k(    1) = (   0.0000000   0.0000000   0.0000000), wk =   0.0160000
        k(    2) = (  -0.2000000   0.2000000  -0.2000000), wk =   0.1280000
        k(    3) = (  -0.4000000   0.4000000  -0.4000000), wk =   0.1280000
        k(    4) = (   0.0000000   0.4000000   0.0000000), wk =   0.0960000
        k(    5) = (  -0.2000000   0.6000000  -0.2000000), wk =   0.3840000
        k(    6) = (   0.6000000  -0.2000000   0.6000000), wk =   0.3840000
        k(    7) = (   0.4000000   0.0000000   0.4000000), wk =   0.1920000
        k(    8) = (   0.0000000   0.8000000   0.0000000), wk =   0.0960000
        k(    9) = (   0.8000000   0.0000000   0.8000000), wk =   0.1920000
        k(   10) = (   0.6000000  -0.2000000   1.0000000), wk =   0.3840000

     Dense  grid:    12939 G-vectors     FFT dimensions: (  36,  36,  36)

     Largest allocated arrays     est. size (Mb)     dimensions
        Kohn-Sham Wavefunctions         0.60 Mb     (    1639,   24)
        NL pseudopotentials             0.55 Mb     (    1639,   22)
        Each V/rho on FFT grid          0.71 Mb     (   46656)
        Each G-vector array             0.10 Mb     (   12939)
        G-vector shells                 0.00 Mb     (     180)
     Largest temporary arrays     est. size (Mb)     dimensions
        Auxiliary wavefunctions         2.40 Mb     (    1639,   96)
        Each subspace H/S matrix        0.14 Mb     (      96,   96)
        Each <psi_i|beta_j> matrix      0.01 Mb     (      22,   24)
        Arrays for rho mixing           5.70 Mb     (   46656,    8)

     Initial potential from superposition of free atoms

     starting charge    7.99859, renormalised to   28.00000
     Starting wfc are   32 randomized atomic wfcs

     total cpu time spent up to now is        1.6 secs

     per-process dynamical memory:    19.5 Mb

     Self-consistent Calculation

     iteration #  1     ecut=    50.00 Ry     beta=0.30
     Davidson diagonalization with overlap
     ethr =  1.00E-02,  avg # of iterations =  4.3

     total cpu time spent up to now is        6.6 secs

     total energy              =       4.31686048 Ry
     Harris-Foulkes estimate   =      -3.60237143 Ry
     estimated scf accuracy    <      18.85309749 Ry

     iteration #  2     ecut=    50.00 Ry     beta=0.30
     Davidson diagonalization with overlap
     ethr =  1.00E-02,  avg # of iterations =  2.5

     total cpu time spent up to now is        9.5 secs

     total energy              =       3.18758516 Ry
     Harris-Foulkes estimate   =       2.36934902 Ry
     estimated scf accuracy    <       1.46189825 Ry

     iteration #  3     ecut=    50.00 Ry     beta=0.30
     Davidson diagonalization with overlap
     ethr =  5.22E-03,  avg # of iterations =  2.0

     total cpu time spent up to now is       11.7 secs

     total energy              =       2.86744917 Ry
     Harris-Foulkes estimate   =       2.86629768 Ry
     estimated scf accuracy    <       0.00426503 Ry

     iteration #  4     ecut=    50.00 Ry     beta=0.30
     Davidson diagonalization with overlap
     ethr =  1.52E-05,  avg # of iterations =  5.1

     total cpu time spent up to now is       14.4 secs

     total energy              =       2.86663899 Ry
     Harris-Foulkes estimate   =       2.86612534 Ry
     estimated scf accuracy    <       0.00155914 Ry

     iteration #  5     ecut=    50.00 Ry     beta=0.30
     Davidson diagonalization with overlap
     ethr =  5.57E-06,  avg # of iterations =  2.0

     total cpu time spent up to now is       16.9 secs

     total energy              =       2.86647635 Ry
     Harris-Foulkes estimate   =       2.86638831 Ry
     estimated scf accuracy    <       0.00017019 Ry

     iteration #  6     ecut=    50.00 Ry     beta=0.30
     Davidson diagonalization with overlap
     ethr =  6.08E-07,  avg # of iterations =  1.9

     total cpu time spent up to now is       19.2 secs

     total energy              =       2.86645349 Ry
     Harris-Foulkes estimate   =       2.86645314 Ry
     estimated scf accuracy    <       0.00002257 Ry

     iteration #  7     ecut=    50.00 Ry     beta=0.30
     Davidson diagonalization with overlap
     ethr =  8.06E-08,  avg # of iterations =  2.0

     total cpu time spent up to now is       22.3 secs

     total energy              =       2.86644860 Ry
     Harris-Foulkes estimate   =       2.86644881 Ry
     estimated scf accuracy    <       0.00000170 Ry

     iteration #  8     ecut=    50.00 Ry     beta=0.30
     Davidson diagonalization with overlap
     ethr =  6.07E-09,  avg # of iterations =  2.0

     total cpu time spent up to now is       25.0 secs

     total energy              =       2.86644802 Ry
     Harris-Foulkes estimate   =       2.86644806 Ry
     estimated scf accuracy    <       0.00000009 Ry

     iteration #  9     ecut=    50.00 Ry     beta=0.30
     Davidson diagonalization with overlap
     ethr =  3.13E-10,  avg # of iterations =  2.0

     total cpu time spent up to now is       26.8 secs

     total energy              =       2.86644800 Ry
     Harris-Foulkes estimate   =       2.86644800 Ry
     estimated scf accuracy    <       0.00000001 Ry

     iteration # 10     ecut=    50.00 Ry     beta=0.30
     Davidson diagonalization with overlap
     ethr =  4.37E-11,  avg # of iterations =  1.0

     total cpu time spent up to now is       28.6 secs

     total energy              =       2.86644800 Ry
     Harris-Foulkes estimate   =       2.86644800 Ry
     estimated scf accuracy    <          9.5E-09 Ry

     iteration # 11     ecut=    50.00 Ry     beta=0.30
     Davidson diagonalization with overlap
     ethr =  3.39E-11,  avg # of iterations =  2.0

     total cpu time spent up to now is       30.5 secs

     End of self-consistent calculation

          k = 0.0000 0.0000 0.0000 (  1639 PWs)   bands (ev):

    -9.4830   3.5515   3.5515   3.5515   4.8285   4.8285   4.8285   6.6858
     7.5839   9.8551   9.8551  11.3378  11.3378  11.3378  13.8154  25.6377
    25.6377  25.6377  27.4138  27.4138  28.1158  28.1158  28.1158  31.2820

          k =-0.2000 0.2000-0.2000 (  1606 PWs)   bands (ev):

    -8.9084  -0.2148   2.7007   2.7007   4.5932   5.8170   5.8170   8.3906
     8.4525   8.4525   9.1837  11.7665  14.8462  14.8462  17.1744  21.2916
    21.2916  21.9713  26.9543  26.9543  29.0240  29.0240  30.3453  32.1046

          k =-0.4000 0.4000-0.4000 (  1616 PWs)   bands (ev):

    -7.2660  -4.0018   2.1652   2.1652   4.1003   5.0975   5.0975   7.1671
    11.0478  11.0478  12.0955  15.6108  15.6108  16.4611  18.7848  20.2776
    20.2776  22.7124  25.2557  26.3060  26.3060  28.8722  28.8722  29.8573

          k = 0.0000 0.4000 0.0000 (  1607 PWs)   bands (ev):

    -8.7154   1.0057   1.3745   1.3745   2.9294   4.7795   7.8726   7.8726
    10.1807  10.6467  10.8485  12.6937  12.6937  13.1776  19.5854  20.8054
    20.8054  22.2810  23.6837  26.3559  29.1646  29.8487  29.8487  32.3530

          k =-0.2000 0.6000-0.2000 (  1619 PWs)   bands (ev):

    -7.4048  -2.4840   0.0331   0.8210   2.9215   5.5494   7.7934   7.7937
    10.8819  12.4578  13.3028  15.1981  15.3030  16.9216  16.9448  18.4561
    22.2264  22.5398  24.1010  24.7102  25.0955  28.4723  28.7471  28.7799

          k = 0.6000-0.2000 0.6000 (  1596 PWs)   bands (ev):

    -6.1602  -4.3999  -1.0031   1.2575   3.2561   6.7945   6.9440   9.7151
    10.1314  10.4691  12.2203  16.6727  16.8455  18.0860  18.3315  21.6553
    22.2370  22.4621  23.0986  24.1437  25.9818  26.5931  27.0708  27.7246

          k = 0.4000 0.0000 0.4000 (  1610 PWs)   bands (ev):

    -7.9645  -1.3905  -0.8739   2.4916   4.7533   6.3220   6.6579   7.3205
     7.4952  11.7453  12.6912  13.8700  15.2747  15.6307  19.2260  20.6553
    21.7617  21.9215  22.6325  24.6291  28.1974  29.1389  29.3980  30.2510

          k = 0.0000 0.8000 0.0000 (  1624 PWs)   bands (ev):

    -6.4537  -2.9090  -0.0306  -0.0306   1.5831   1.9410  11.4880  11.4880
    13.0145  14.2523  15.3633  15.3924  15.3924  16.8508  16.9293  17.4337
    17.4337  20.5995  23.4973  24.3151  24.3151  25.0810  27.2053  30.1410

          k = 0.8000 0.0000 0.8000 (  1622 PWs)   bands (ev):

    -4.8027  -4.4273  -2.4437   0.1313   1.9004   4.7870  10.7087  11.0718
    11.2075  11.4154  16.4676  16.8203  17.2354  17.5817  18.1299  18.6457
    21.0892  21.1689  22.0573  22.4932  23.8688  24.3476  25.8949  27.1036

          k = 0.6000-0.2000 1.0000 (  1616 PWs)   bands (ev):

    -5.8113  -3.2745  -2.1975  -1.0177   5.1815   5.2461   6.6061   9.9344
    11.4245  12.7348  15.0895  15.1947  16.1489  18.3771  18.7658  20.1589
    21.5742  21.8404  22.9622  23.5013  23.9753  25.7852  27.1675  28.6948

     the Fermi energy is    17.6121 ev

!    total energy              =       2.86644800 Ry
     Harris-Foulkes estimate   =       2.86644800 Ry
     estimated scf accuracy    <          2.6E-11 Ry

     The total energy is the sum of the following terms:

     one-electron contribution =      40.54441283 Ry
     hartree contribution      =       1.90107410 Ry
     xc contribution           =     -22.79111265 Ry
     ewald contribution        =     -16.79708774 Ry
     smearing contrib. (-TS)   =       0.00916147 Ry

     convergence has been achieved in  11 iterations

     Forces acting on atoms (Ry/au):

     atom    1 type  1   force =    -0.00000000   -0.00000000   -0.00000000
     atom    2 type  1   force =     0.00000000   -0.00000000    0.00000000

     Total force =     0.000000     Total SCF correction =     0.000000


     entering subroutine stress ...

          total   stress  (Ry/bohr**3)                   (kbar)     P=11326.69
   0.07699731   0.00000000   0.00000000      11326.69      0.00      0.00
   0.00000000   0.07699731  -0.00000000          0.00  11326.69     -0.00
   0.00000000  -0.00000000   0.07699731          0.00     -0.00  11326.69


     Writing output data file Si.save

     init_run     :      1.44s CPU      1.57s WALL (       1 calls)
     electrons    :     27.34s CPU     28.89s WALL (       1 calls)
     forces       :      0.09s CPU      0.10s WALL (       1 calls)
     stress       :      0.69s CPU      0.69s WALL (       1 calls)

     Called by init_run:
     wfcinit      :      1.27s CPU      1.36s WALL (       1 calls)
     potinit      :      0.05s CPU      0.05s WALL (       1 calls)

     Called by electrons:
     c_bands      :     23.22s CPU     24.49s WALL (      11 calls)
     sum_band     :      3.64s CPU      3.91s WALL (      11 calls)
     v_of_rho     :      0.48s CPU      0.49s WALL (      12 calls)
     mix_rho      :      0.03s CPU      0.03s WALL (      11 calls)

     Called by c_bands:
     init_us_2    :      0.37s CPU      0.40s WALL (     250 calls)
     cegterg      :     22.93s CPU     24.16s WALL (     110 calls)

     Called by *egterg:
     h_psi        :     19.20s CPU     20.18s WALL (     388 calls)
     g_psi        :      0.04s CPU      0.04s WALL (     268 calls)
     cdiaghg      :      0.70s CPU      0.74s WALL (     378 calls)

     Called by h_psi:
     add_vuspsi   :      0.52s CPU      0.53s WALL (     388 calls)

     General routines
     calbec       :      0.63s CPU      0.67s WALL (     408 calls)
     fft          :      0.19s CPU      0.19s WALL (     139 calls)
     fftw         :     20.11s CPU     21.26s WALL (   16940 calls)
     davcio       :      0.00s CPU      0.01s WALL (      10 calls)

     Parallel routines
     fft_scatter  :      0.51s CPU      0.54s WALL (   17079 calls)

     PWSCF        :    29.73s CPU        31.44s WALL


   This run was terminated on:  17:57:13  13Feb2023            

=------------------------------------------------------------------------------=
   JOB DONE.
=------------------------------------------------------------------------------=
