
     Program PWSCF v.5.1 starts on 13Feb2023 at 14:56:51 

     This program is part of the open-source Quantum ESPRESSO suite
     for quantum simulation of materials; please cite
         "P. Giannozzi et al., J. Phys.:Condens. Matter 21 395502 (2009);
          URL http://www.quantum-espresso.org", 
     in publications or presentations arising from this work. More details at
     http://www.quantum-espresso.org/quote

     Parallel version (MPI), running on     1 processors
     Waiting for input...
     Reading input from standard input
Warning: card    SI   -0.50    0.00    0.50 ignored
Warning: card    SI   -0.25    0.25    0.75 ignored

     Current dimensions of program PWSCF are:
     Max number of different atomic species (ntypx) = 10
     Max number of k-points (npk) =  40000
     Max angular momentum in pseudopotentials (lmaxx) =  3

     Atomic positions and unit cell read from directory:
     ./out/Si.save/

               file Si.pbe-mt_fhi.UPF: wavefunction(s)  4f renormalized
               file P.pbe-mt_fhi.UPF: wavefunction(s)  4f renormalized

     Subspace diagonalization in iterative solution of the eigenvalue problem:
     a serial algorithm will be used


     G-vector sticks info
     --------------------
     sticks:   dense  smooth     PW     G-vecs:    dense   smooth      PW
     Sum         733     733    223                12939    12939    2229



     bravais-lattice index     =            2
     lattice parameter (alat)  =      10.2623  a.u.
     unit-cell volume          =     270.1967 (a.u.)^3
     number of atoms/cell      =            2
     number of atomic types    =            2
     number of electrons       =         9.00
     number of Kohn-Sham states=           12
     kinetic-energy cutoff     =      50.0000  Ry
     charge density cutoff     =     200.0000  Ry
     Exchange-correlation      = PBE ( 1  4  3  4 0)

     celldm(1)=  10.262347  celldm(2)=   0.000000  celldm(3)=   0.000000
     celldm(4)=   0.000000  celldm(5)=   0.000000  celldm(6)=   0.000000

     crystal axes: (cart. coord. in units of alat)
               a(1) = (  -0.500000   0.000000   0.500000 )  
               a(2) = (   0.000000   0.500000   0.500000 )  
               a(3) = (  -0.500000   0.500000   0.000000 )  

     reciprocal axes: (cart. coord. in units 2 pi/alat)
               b(1) = ( -1.000000 -1.000000  1.000000 )  
               b(2) = (  1.000000  1.000000  1.000000 )  
               b(3) = ( -1.000000  1.000000 -1.000000 )  


     PseudoPot. # 1 for Si read from file:
     /home/acedemo/psudo/Si.pbe-mt_fhi.UPF
     MD5 check sum: 259057c2adf9952f9ced37ae3d9e311d
     Pseudo is Norm-conserving, Zval =  4.0
     Generated using FHI98PP, converted with fhi2upf.x v.5.0.2
     Using radial grid of  495 points,  3 beta functions with: 
                l(1) =   0
                l(2) =   1
                l(3) =   3

     PseudoPot. # 2 for  P read from file:
     /home/acedemo/psudo/P.pbe-mt_fhi.UPF
     MD5 check sum: 7191c457fb61afa58d0f00d0e4a443c1
     Pseudo is Norm-conserving, Zval =  5.0
     Generated using FHI98PP, converted with fhi2upf.x v.5.0.2
     Using radial grid of  499 points,  3 beta functions with: 
                l(1) =   0
                l(2) =   1
                l(3) =   3

     atomic species   valence    mass     pseudopotential
        Si             4.00    28.08550     Si( 1.00)
        P              5.00    30.97376      P( 1.00)

     24 Sym. Ops. (no inversion) found



   Cartesian axes

     site n.     atom                  positions (alat units)
         1           P   tau(   1) = (   0.0000000   0.0000000   0.0000000  )
         2           Si  tau(   2) = (   0.2500000   0.2500000   0.2500000  )

     number of k points=    72 (tetrahedron method)
                       cart. coord. in units 2pi/alat
        k(    1) = (   0.0000000   0.0000000   0.0000000), wk =   0.0011574
        k(    2) = (  -0.0833333   0.0833333  -0.0833333), wk =   0.0092593
        k(    3) = (  -0.1666667   0.1666667  -0.1666667), wk =   0.0092593
        k(    4) = (  -0.2500000   0.2500000  -0.2500000), wk =   0.0092593
        k(    5) = (  -0.3333333   0.3333333  -0.3333333), wk =   0.0092593
        k(    6) = (  -0.4166667   0.4166667  -0.4166667), wk =   0.0092593
        k(    7) = (   0.5000000  -0.5000000   0.5000000), wk =   0.0046296
        k(    8) = (   0.0000000   0.1666667   0.0000000), wk =   0.0069444
        k(    9) = (  -0.0833333   0.2500000  -0.0833333), wk =   0.0277778
        k(   10) = (  -0.1666667   0.3333333  -0.1666667), wk =   0.0277778
        k(   11) = (  -0.2500000   0.4166667  -0.2500000), wk =   0.0277778
        k(   12) = (  -0.3333333   0.5000000  -0.3333333), wk =   0.0277778
        k(   13) = (   0.5833333  -0.4166667   0.5833333), wk =   0.0277778
        k(   14) = (   0.5000000  -0.3333333   0.5000000), wk =   0.0277778
        k(   15) = (   0.4166667  -0.2500000   0.4166667), wk =   0.0277778
        k(   16) = (   0.3333333  -0.1666667   0.3333333), wk =   0.0277778
        k(   17) = (   0.2500000  -0.0833333   0.2500000), wk =   0.0277778
        k(   18) = (   0.1666667  -0.0000000   0.1666667), wk =   0.0138889
        k(   19) = (   0.0000000   0.3333333   0.0000000), wk =   0.0069444
        k(   20) = (  -0.0833333   0.4166667  -0.0833333), wk =   0.0277778
        k(   21) = (  -0.1666667   0.5000000  -0.1666667), wk =   0.0277778
        k(   22) = (  -0.2500000   0.5833333  -0.2500000), wk =   0.0277778
        k(   23) = (   0.6666667  -0.3333333   0.6666667), wk =   0.0277778
        k(   24) = (   0.5833333  -0.2500000   0.5833333), wk =   0.0277778
        k(   25) = (   0.5000000  -0.1666667   0.5000000), wk =   0.0277778
        k(   26) = (   0.4166667  -0.0833333   0.4166667), wk =   0.0277778
        k(   27) = (   0.3333333   0.0000000   0.3333333), wk =   0.0138889
        k(   28) = (   0.0000000   0.5000000   0.0000000), wk =   0.0069444
        k(   29) = (  -0.0833333   0.5833333  -0.0833333), wk =   0.0277778
        k(   30) = (  -0.1666667   0.6666667  -0.1666667), wk =   0.0277778
        k(   31) = (   0.7500000  -0.2500000   0.7500000), wk =   0.0277778
        k(   32) = (   0.6666667  -0.1666667   0.6666667), wk =   0.0277778
        k(   33) = (   0.5833333  -0.0833333   0.5833333), wk =   0.0277778
        k(   34) = (   0.5000000   0.0000000   0.5000000), wk =   0.0138889
        k(   35) = (   0.0000000   0.6666667   0.0000000), wk =   0.0069444
        k(   36) = (  -0.0833333   0.7500000  -0.0833333), wk =   0.0277778
        k(   37) = (   0.8333333  -0.1666667   0.8333333), wk =   0.0277778
        k(   38) = (   0.7500000  -0.0833333   0.7500000), wk =   0.0277778
        k(   39) = (   0.6666667   0.0000000   0.6666667), wk =   0.0138889
        k(   40) = (   0.0000000   0.8333333   0.0000000), wk =   0.0069444
        k(   41) = (   0.9166667  -0.0833333   0.9166667), wk =   0.0277778
        k(   42) = (   0.8333333   0.0000000   0.8333333), wk =   0.0138889
        k(   43) = (   0.0000000  -1.0000000   0.0000000), wk =   0.0034722
        k(   44) = (  -0.1666667   0.3333333   0.0000000), wk =   0.0277778
        k(   45) = (  -0.2500000   0.4166667  -0.0833333), wk =   0.0555556
        k(   46) = (  -0.3333333   0.5000000  -0.1666667), wk =   0.0555556
        k(   47) = (   0.5833333  -0.4166667   0.7500000), wk =   0.0555556
        k(   48) = (   0.5000000  -0.3333333   0.6666667), wk =   0.0277778
        k(   49) = (  -0.1666667   0.5000000   0.0000000), wk =   0.0277778
        k(   50) = (  -0.2500000   0.5833333  -0.0833333), wk =   0.0555556
        k(   51) = (   0.6666667  -0.3333333   0.8333333), wk =   0.0555556
        k(   52) = (   0.5833333  -0.2500000   0.7500000), wk =   0.0555556
        k(   53) = (   0.5000000  -0.1666667   0.6666667), wk =   0.0555556
        k(   54) = (   0.4166667  -0.0833333   0.5833333), wk =   0.0555556
        k(   55) = (   0.3333333   0.0000000   0.5000000), wk =   0.0277778
        k(   56) = (  -0.1666667   0.6666667  -0.0000000), wk =   0.0277778
        k(   57) = (   0.7500000  -0.2500000   0.9166667), wk =   0.0555556
        k(   58) = (   0.6666667  -0.1666667   0.8333333), wk =   0.0555556
        k(   59) = (   0.5833333  -0.0833333   0.7500000), wk =   0.0555556
        k(   60) = (   0.5000000   0.0000000   0.6666667), wk =   0.0277778
        k(   61) = (   0.8333333  -0.1666667   1.0000000), wk =   0.0277778
        k(   62) = (   0.7500000  -0.0833333   0.9166667), wk =   0.0555556
        k(   63) = (   0.6666667   0.0000000   0.8333333), wk =   0.0277778
        k(   64) = (  -0.1666667  -1.0000000   0.0000000), wk =   0.0138889
        k(   65) = (   0.6666667  -0.3333333   1.0000000), wk =   0.0277778
        k(   66) = (   0.5833333  -0.2500000   0.9166667), wk =   0.0555556
        k(   67) = (   0.5000000  -0.1666667   0.8333333), wk =   0.0277778
        k(   68) = (   0.6666667  -0.1666667   1.0000000), wk =   0.0277778
        k(   69) = (   0.5833333  -0.0833333   0.9166667), wk =   0.0555556
        k(   70) = (   0.5000000   0.0000000   0.8333333), wk =   0.0277778
        k(   71) = (  -0.3333333  -1.0000000   0.0000000), wk =   0.0138889
        k(   72) = (  -0.5000000  -1.0000000   0.0000000), wk =   0.0069444

     Dense  grid:    12939 G-vectors     FFT dimensions: (  36,  36,  36)

     Largest allocated arrays     est. size (Mb)     dimensions
        Kohn-Sham Wavefunctions         0.30 Mb     (    1639,   12)
        NL pseudopotentials             0.55 Mb     (    1639,   22)
        Each V/rho on FFT grid          0.71 Mb     (   46656)
        Each G-vector array             0.10 Mb     (   12939)
        G-vector shells                 0.00 Mb     (     180)
     Largest temporary arrays     est. size (Mb)     dimensions
        Auxiliary wavefunctions         1.20 Mb     (    1639,   48)
        Each subspace H/S matrix        0.04 Mb     (      48,   48)
        Each <psi_i|beta_j> matrix      0.00 Mb     (      22,   12)

     The potential is recalculated from file :
     ./out/Si.save/charge-density.dat

     Starting wfc are   32 randomized atomic wfcs

     Band Structure Calculation
     Davidson diagonalization with overlap

     ethr =  1.78E-11,  avg # of iterations = 21.1

     total cpu time spent up to now is       40.0 secs

     End of band structure calculation

          k = 0.0000 0.0000 0.0000 (  1639 PWs)   bands (ev):

    -7.0970   4.7901   4.7901   4.7901   6.5835   8.3182   8.3182   8.3182
    13.8725  13.9338  13.9338  17.4566

          k =-0.0833 0.0833-0.0833 (  1612 PWs)   bands (ev):

    -7.0149   3.8909   4.6904   4.6904   7.0884   8.4806   8.4806   8.5820
    13.6935  13.6935  14.2337  17.1455

          k =-0.1667 0.1667-0.1667 (  1591 PWs)   bands (ev):

    -6.7733   2.4475   4.4564   4.4564   7.1393   8.8487   8.8487   9.6912
    13.3531  13.3531  14.9912  16.7944

          k =-0.2500 0.2500-0.2500 (  1618 PWs)   bands (ev):

    -6.3890   1.0256   4.1975   4.1975   6.8705   9.1672   9.1672  11.1340
    13.4017  13.4017  15.0816  17.6140

          k =-0.3333 0.3333-0.3333 (  1616 PWs)   bands (ev):

    -5.9040  -0.2345   3.9832   3.9832   6.6074   9.2739   9.2739  12.5273
    14.0515  14.0515  14.8639  18.8878

          k =-0.4167 0.4167-0.4167 (  1616 PWs)   bands (ev):

    -5.4274  -1.1871   3.8462   3.8462   6.4330   9.2462   9.2462  13.3830
    15.2176  15.2176  15.2942  18.3772

          k = 0.5000-0.5000 0.5000 (  1622 PWs)   bands (ev):

    -5.2032  -1.5716   3.7994   3.7994   6.3728   9.2203   9.2203  13.5299
    16.1970  16.5545  16.5545  16.9532

          k = 0.0000 0.1667 0.0000 (  1615 PWs)   bands (ev):

    -6.9874   3.8936   4.4937   4.4937   7.4288   8.0911   8.7537   8.7537
    13.2088  14.0661  14.3579  17.6630

          k =-0.0833 0.2500-0.0833 (  1599 PWs)   bands (ev):

    -6.7984   2.7846   4.2083   4.3069   7.6690   8.1992   9.2091   9.5121
    12.7256  14.0234  15.0515  17.2665

          k =-0.1667 0.3333-0.1667 (  1610 PWs)   bands (ev):

    -6.4599   1.4311   3.9396   4.0316   7.4627   8.6287   9.6002  10.5268
    12.7830  14.0507  15.5523  17.4407

          k =-0.2500 0.4167-0.2500 (  1606 PWs)   bands (ev):

    -6.0027   0.1501   3.7222   3.7459   7.2067   8.9556   9.7340  11.4172
    13.6511  14.5842  15.3407  18.6012

          k =-0.3333 0.5000-0.3333 (  1616 PWs)   bands (ev):

    -5.5062  -0.9028   3.4592   3.6523   7.0114   9.0607   9.6540  12.4458
    14.6225  15.5154  15.6506  18.2788

          k = 0.5833-0.4167 0.5833 (  1615 PWs)   bands (ev):

    -5.1654  -1.5011   3.2823   3.6649   6.9150   9.1129   9.5199  13.3595
    14.9794  16.4409  16.6515  17.1629

          k = 0.5000-0.3333 0.5000 (  1616 PWs)   bands (ev):

    -5.2440  -1.3698   3.2116   3.7787   6.9301   9.2182   9.4202  13.3763
    14.8985  15.2133  16.7124  17.2117

          k = 0.4167-0.2500 0.4167 (  1611 PWs)   bands (ev):

    -5.6689  -0.5849   3.2583   3.9791   7.0549   9.3414   9.3566  12.4737
    13.6433  15.0925  15.8081  18.0802

          k = 0.3333-0.1667 0.3333 (  1605 PWs)   bands (ev):

    -6.1663   0.5601   3.4290   4.2387   7.2701   9.1769   9.3676  11.3316
    12.8847  14.4668  15.4974  18.1198

          k = 0.2500-0.0833 0.2500 (  1600 PWs)   bands (ev):

    -6.5890   1.8646   3.7288   4.5063   7.5076   8.8537   9.0019  10.3123
    12.7484  13.8391  15.5013  17.2039

          k = 0.1667-0.0000 0.1667 (  1592 PWs)   bands (ev):

    -6.8794   3.1107   4.1821   4.6916   7.4845   8.5330   8.5373   9.3556
    13.1151  13.7649  14.7664  17.2688

          k = 0.0000 0.3333 0.0000 (  1607 PWs)   bands (ev):

    -6.6627   2.4961   3.8864   3.8864   7.4650   8.5856   9.7737   9.7737
    12.2150  14.4624  15.5789  18.2576

          k =-0.0833 0.4167-0.0833 (  1616 PWs)   bands (ev):

    -6.3743   1.5447   3.5588   3.5967   7.4261   8.6962  10.2881  10.3053
    12.4633  14.6730  16.3261  18.0812

          k =-0.1667 0.5000-0.1667 (  1611 PWs)   bands (ev):

    -5.9559   0.4204   3.1448   3.3962   7.5309   8.9607  10.3513  10.5641
    13.6765  15.1487  16.4117  18.6892

          k =-0.2500 0.5833-0.2500 (  1610 PWs)   bands (ev):

    -5.4656  -0.6157   2.7407   3.3098   7.4904   9.3220  10.5166  10.7770
    15.0217  16.1305  16.1753  18.1537

          k = 0.6667-0.3333 0.6667 (  1607 PWs)   bands (ev):

    -5.0506  -1.3381   2.4292   3.3444   7.4581   9.3944  10.3298  11.9018
    14.9524  16.3414  17.1681  17.5247

          k = 0.5833-0.2500 0.5833 (  1602 PWs)   bands (ev):

    -4.9806  -1.4470   2.2504   3.4936   7.5163   9.4490  10.1306  13.0225
    14.1696  14.7274  17.0824  18.5981

          k = 0.5000-0.1667 0.5000 (  1610 PWs)   bands (ev):

    -5.3200  -0.8797   2.2338   3.7385   7.6661   9.5739   9.9296  12.2255
    13.4154  15.0397  17.2510  17.8860

          k = 0.4167-0.0833 0.4167 (  1613 PWs)   bands (ev):

    -5.8086   0.0600   2.4220   4.0416   7.8600   9.6317   9.6330  11.1171
    12.6081  15.7652  16.3701  18.0933

          k = 0.3333 0.0000 0.3333 (  1604 PWs)   bands (ev):

    -6.2572   1.0588   2.9028   4.3342   7.9297   9.1978   9.2463  10.6530
    12.4295  14.6880  16.2572  17.6697

          k = 0.0000 0.5000 0.0000 (  1612 PWs)   bands (ev):

    -6.1367   1.0915   3.2825   3.2825   6.9272   8.5569  11.0525  11.0525
    12.5137  15.1209  17.1393  19.0676

          k =-0.0833 0.5833-0.0833 (  1617 PWs)   bands (ev):

    -5.7645   0.2925   2.8892   3.0595   6.9646   8.3709  11.2359  11.5591
    13.6477  15.6171  17.5633  19.2788

          k =-0.1667 0.6667-0.1667 (  1620 PWs)   bands (ev):

    -5.3015  -0.5591   2.3424   2.9562   7.1536   8.8012  11.0472  11.6571
    15.1836  16.5409  16.9953  18.1298

          k = 0.7500-0.2500 0.7500 (  1617 PWs)   bands (ev):

    -4.8588  -1.2518   1.8492   2.9820   7.2289   9.8439  10.9392  11.4844
    15.2404  16.3560  17.3551  17.9452

          k = 0.6667-0.1667 0.6667 (  1607 PWs)   bands (ev):

    -4.6729  -1.5086   1.5275   3.1331   7.3637  10.5098  11.2133  11.6181
    13.8285  14.7273  18.5918  18.9048

          k = 0.5833-0.0833 0.5833 (  1611 PWs)   bands (ev):

    -4.9047  -1.1785   1.4503   3.3915   7.6013  10.5952  10.8583  12.0176
    13.4333  13.4857  18.6071  19.5028

          k = 0.5000 0.0000 0.5000 (  1604 PWs)   bands (ev):

    -5.3555  -0.5433   1.7169   3.7190   7.8646  10.3035  10.4687  10.9925
    12.7196  15.0577  17.7454  18.9385

          k = 0.0000 0.6667 0.0000 (  1624 PWs)   bands (ev):

    -5.4419  -0.2415   2.8079   2.8079   6.5432   7.7620  12.4482  12.4482
    13.9009  16.0371  18.5081  19.1121

          k =-0.0833 0.7500-0.0833 (  1618 PWs)   bands (ev):

    -5.0250  -0.8918   2.4170   2.6758   6.6724   7.6337  12.6241  12.8839
    15.1796  16.8071  17.6297  18.1484

          k = 0.8333-0.1667 0.8333 (  1619 PWs)   bands (ev):

    -4.6056  -1.4435   1.8187   2.6763   6.8555   8.3538  12.4546  12.8255
    15.4778  16.4852  17.3762  18.1797

          k = 0.7500-0.0833 0.7500 (  1620 PWs)   bands (ev):

    -4.3817  -1.6893   1.3254   2.8086   7.0124   9.6754  12.3145  12.4791
    13.8903  14.9438  18.7781  19.8464

          k = 0.6667 0.0000 0.6667 (  1612 PWs)   bands (ev):

    -4.5255  -1.5192   1.1487   3.0585   7.2795  11.1152  11.8259  12.1956
    12.4663  13.8652  19.6490  20.5770

          k = 0.0000 0.8333 0.0000 (  1628 PWs)   bands (ev):

    -4.6751  -1.3965   2.5105   2.5105   6.3940   7.0412  13.8552  13.8552
    15.4885  17.1978  17.8387  17.8387

          k = 0.9167-0.0833 0.9167 (  1622 PWs)   bands (ev):

    -4.3506  -1.7952   2.1759   2.4778   6.5822   7.1417  14.0290  14.1128
    15.8115  16.7128  17.2799  18.2511

          k = 0.8333 0.0000 0.8333 (  1614 PWs)   bands (ev):

    -4.2288  -1.8845   1.6400   2.5807   6.7472   8.1869  13.6022  13.7105
    14.3612  15.5486  18.2829  19.7001

          k = 0.0000-1.0000 0.0000 (  1604 PWs)   bands (ev):

    -4.2304  -1.9715   2.4095   2.4095   6.4456   6.6837  14.7357  14.7357
    16.5341  16.9124  16.9124  18.0285

          k =-0.1667 0.3333 0.0000 (  1603 PWs)   bands (ev):

    -6.5599   1.9654   3.5542   4.2208   7.8996   8.2967   9.6078  10.1505
    12.4767  14.2206  15.7838  17.5945

          k =-0.2500 0.4167-0.0833 (  1607 PWs)   bands (ev):

    -6.1806   0.8596   3.0615   4.0008   7.8941   8.6692  10.0312  10.5055
    12.8448  14.7850  16.2074  17.9746

          k =-0.3333 0.5000-0.1667 (  1604 PWs)   bands (ev):

    -5.7025  -0.2562   2.7691   3.7357   7.7229   8.9963  10.1428  11.1266
    13.6950  15.6430  16.1901  18.1103

          k = 0.5833-0.4167 0.7500 (  1612 PWs)   bands (ev):

    -5.2330  -1.1417   2.6171   3.5354   7.5881   9.0303  10.1232  12.2019
    14.5980  15.4485  16.9702  17.5350

          k = 0.5000-0.3333 0.6667 (  1602 PWs)   bands (ev):

    -5.0122  -1.5057   2.5708   3.4615   7.5398   9.0099  10.1005  13.1296
    14.1474  15.9977  16.8639  17.2507

          k =-0.1667 0.5000 0.0000 (  1617 PWs)   bands (ev):

    -6.0439   0.7839   2.9438   3.4823   7.4658   8.7198  10.3492  10.9528
    13.0867  15.1916  16.9628  18.4241

          k =-0.2500 0.5833-0.0833 (  1611 PWs)   bands (ev):

    -5.6003  -0.1192   2.4511   3.2519   7.7185   9.0022  10.1519  11.3722
    14.0391  16.1971  16.7229  18.5730

          k = 0.6667-0.3333 0.8333 (  1617 PWs)   bands (ev):

    -5.1222  -0.9569   2.0920   3.0824   7.7857   9.4734  10.3905  11.4521
    14.8971  15.8317  17.5390  17.8965

          k = 0.5833-0.2500 0.7500 (  1607 PWs)   bands (ev):

    -4.8004  -1.4523   1.8562   3.0668   7.8524   9.4112  11.1260  11.8557
    13.7364  16.2394  17.1610  18.1289

          k = 0.5000-0.1667 0.6667 (  1605 PWs)   bands (ev):

    -4.8843  -1.3245   1.7689   3.2081   8.0013   9.3313  11.0583  12.1434
    13.4573  14.9288  17.8922  18.6837

          k = 0.4167-0.0833 0.5833 (  1610 PWs)   bands (ev):

    -5.2955  -0.6752   1.8848   3.4681   8.2039   9.2515  10.6053  11.2795
    13.5559  15.1733  17.6967  18.4412

          k = 0.3333 0.0000 0.5000 (  1606 PWs)   bands (ev):

    -5.7740   0.1406   2.2944   3.7750   8.3195   8.8573  10.2957  10.7044
    12.9673  16.0132  16.5289  18.3397

          k =-0.1667 0.6667-0.0000 (  1626 PWs)   bands (ev):

    -5.3672  -0.3783   2.4821   2.8370   7.0976   8.1588  11.2997  12.4078
    14.4485  16.4594  17.2827  19.1129

          k = 0.7500-0.2500 0.9167 (  1621 PWs)   bands (ev):

    -4.9132  -1.0449   1.9810   2.6606   7.4057   8.6164  11.0523  12.7687
    15.1716  16.1433  17.7051  18.3328

          k = 0.6667-0.1667 0.8333 (  1616 PWs)   bands (ev):

    -4.5519  -1.5125   1.5257   2.6647   7.5471   9.7804  10.8313  12.6621
    13.9132  16.3115  17.4282  19.3981

          k = 0.5833-0.0833 0.7500 (  1614 PWs)   bands (ev):

    -4.5246  -1.5360   1.2799   2.8322   7.7544  10.4609  11.2715  12.1684
    12.8290  14.9075  18.8384  19.6377

          k = 0.5000 0.0000 0.6667 (  1621 PWs)   bands (ev):

    -4.8502  -1.1497   1.3670   3.1229   8.0414  10.1381  10.7597  12.1576
    13.2404  14.0449  19.1703  19.8158

          k = 0.8333-0.1667 1.0000 (  1617 PWs)   bands (ev):

    -4.6312  -1.4142   2.2208   2.3969   6.9371   7.5162  12.6089  13.8175
    15.5832  16.4797  17.6251  18.2695

          k = 0.7500-0.0833 0.9167 (  1620 PWs)   bands (ev):

    -4.3181  -1.7552   1.7177   2.3586   7.2312   8.2822  12.3493  13.5750
    14.7033  16.3191  17.5858  19.2121

          k = 0.6667 0.0000 0.8333 (  1620 PWs)   bands (ev):

    -4.2788  -1.7615   1.3005   2.5293   7.4436   9.6840  11.9320  12.3313
    13.9881  15.2864  18.5499  20.0568

          k =-0.1667-1.0000 0.0000 (  1622 PWs)   bands (ev):

    -4.2165  -1.9314   2.1695   2.2098   6.9586   7.2084  13.8394  13.9931
    15.6393  16.2596  17.7419  18.2517

          k = 0.6667-0.3333 1.0000 (  1610 PWs)   bands (ev):

    -5.1558  -0.7272   1.8702   2.9579   8.3649   9.0647   9.8524  12.2970
    14.2137  15.4803  17.8646  19.2379

          k = 0.5833-0.2500 0.9167 (  1611 PWs)   bands (ev):

    -4.7244  -1.2958   1.5462   2.6858   8.6376   9.3195  10.2237  12.6814
    13.5443  15.4082  18.3798  19.2130

          k = 0.5000-0.1667 0.8333 (  1610 PWs)   bands (ev):

    -4.5236  -1.5523   1.4481   2.5799   8.6799   9.2398  11.2714  12.0746
    12.9701  16.4520  17.2658  19.3463

          k = 0.6667-0.1667 1.0000 (  1618 PWs)   bands (ev):

    -4.5176  -1.4818   1.6932   2.2554   8.2290   8.7180  10.7461  13.3525
    14.2866  15.9961  18.0381  19.4181

          k = 0.5833-0.0833 0.9167 (  1615 PWs)   bands (ev):

    -4.2845  -1.7146   1.4330   2.1250   8.5684   9.7887  10.5162  11.8732
    14.4421  16.3589  17.5860  19.5253

          k = 0.5000 0.0000 0.8333 (  1612 PWs)   bands (ev):

    -4.3821  -1.6088   1.3260   2.3139   8.8051  10.0302  10.3263  11.7101
    14.0091  15.6092  18.3560  19.8851

          k =-0.3333-1.0000 0.0000 (  1618 PWs)   bands (ev):

    -4.1877  -1.8448   1.7579   1.8778   8.2232   8.4875  11.9610  12.1754
    15.4635  16.0585  18.0157  18.3872

          k =-0.5000-1.0000 0.0000 (  1628 PWs)   bands (ev):

    -4.1731  -1.7977   1.5732   1.7344   9.5874   9.8628  10.3663  10.5948
    15.4484  16.0279  18.0890  18.4606

     the Fermi energy is     7.5623 ev

     Writing output data file Si.save

     init_run     :      0.19s CPU      0.20s WALL (       1 calls)
     electrons    :     38.57s CPU     39.59s WALL (       1 calls)

     Called by init_run:
     wfcinit      :      0.00s CPU      0.00s WALL (       1 calls)
     potinit      :      0.03s CPU      0.04s WALL (       1 calls)

     Called by electrons:
     c_bands      :     38.38s CPU     39.39s WALL (       1 calls)
     v_of_rho     :      0.03s CPU      0.03s WALL (       1 calls)

     Called by c_bands:
     init_us_2    :      0.09s CPU      0.10s WALL (      72 calls)
     cegterg      :     31.90s CPU     32.73s WALL (     107 calls)

     Called by *egterg:
     h_psi        :     31.37s CPU     32.19s WALL (    1701 calls)
     g_psi        :      0.08s CPU      0.08s WALL (    1522 calls)
     cdiaghg      :      0.86s CPU      0.88s WALL (    1594 calls)

     Called by h_psi:
     add_vuspsi   :      0.91s CPU      0.94s WALL (    1701 calls)

     General routines
     calbec       :      1.03s CPU      1.07s WALL (    1701 calls)
     fft          :      0.01s CPU      0.01s WALL (      10 calls)
     fftw         :     27.64s CPU     28.36s WALL (   26718 calls)
     davcio       :      0.01s CPU      0.01s WALL (      72 calls)

     Parallel routines
     fft_scatter  :      0.73s CPU      0.73s WALL (   26728 calls)

     PWSCF        :    40.66s CPU        41.96s WALL


   This run was terminated on:  14:57:33  13Feb2023            

=------------------------------------------------------------------------------=
   JOB DONE.
=------------------------------------------------------------------------------=
