
     Program PWSCF v.5.1 starts on 13Feb2023 at 14:55:40 

     This program is part of the open-source Quantum ESPRESSO suite
     for quantum simulation of materials; please cite
         "P. Giannozzi et al., J. Phys.:Condens. Matter 21 395502 (2009);
          URL http://www.quantum-espresso.org", 
     in publications or presentations arising from this work. More details at
     http://www.quantum-espresso.org/quote

     Parallel version (MPI), running on     1 processors
     Waiting for input...
     Reading input from standard input
Warning: card    SI   -0.50    0.00    0.50 ignored
Warning: card    SI   -0.25    0.25    0.75 ignored

     Current dimensions of program PWSCF are:
     Max number of different atomic species (ntypx) = 10
     Max number of k-points (npk) =  40000
     Max angular momentum in pseudopotentials (lmaxx) =  3
               file Si.pbe-mt_fhi.UPF: wavefunction(s)  4f renormalized
               file P.pbe-mt_fhi.UPF: wavefunction(s)  4f renormalized

     Subspace diagonalization in iterative solution of the eigenvalue problem:
     a serial algorithm will be used


     G-vector sticks info
     --------------------
     sticks:   dense  smooth     PW     G-vecs:    dense   smooth      PW
     Sum         733     733    211                12939    12939    2109



     bravais-lattice index     =            2
     lattice parameter (alat)  =      10.2623  a.u.
     unit-cell volume          =     270.1967 (a.u.)^3
     number of atoms/cell      =            2
     number of atomic types    =            2
     number of electrons       =         9.00
     number of Kohn-Sham states=           12
     kinetic-energy cutoff     =      50.0000  Ry
     charge density cutoff     =     200.0000  Ry
     convergence threshold     =      1.6E-09
     mixing beta               =       0.3000
     number of iterations used =            8  plain     mixing
     Exchange-correlation      = PBE ( 1  4  3  4 0)

     celldm(1)=  10.262347  celldm(2)=   0.000000  celldm(3)=   0.000000
     celldm(4)=   0.000000  celldm(5)=   0.000000  celldm(6)=   0.000000

     crystal axes: (cart. coord. in units of alat)
               a(1) = (  -0.500000   0.000000   0.500000 )  
               a(2) = (   0.000000   0.500000   0.500000 )  
               a(3) = (  -0.500000   0.500000   0.000000 )  

     reciprocal axes: (cart. coord. in units 2 pi/alat)
               b(1) = ( -1.000000 -1.000000  1.000000 )  
               b(2) = (  1.000000  1.000000  1.000000 )  
               b(3) = ( -1.000000  1.000000 -1.000000 )  


     PseudoPot. # 1 for Si read from file:
     /home/acedemo/psudo/Si.pbe-mt_fhi.UPF
     MD5 check sum: 259057c2adf9952f9ced37ae3d9e311d
     Pseudo is Norm-conserving, Zval =  4.0
     Generated using FHI98PP, converted with fhi2upf.x v.5.0.2
     Using radial grid of  495 points,  3 beta functions with: 
                l(1) =   0
                l(2) =   1
                l(3) =   3

     PseudoPot. # 2 for  P read from file:
     /home/acedemo/psudo/P.pbe-mt_fhi.UPF
     MD5 check sum: 7191c457fb61afa58d0f00d0e4a443c1
     Pseudo is Norm-conserving, Zval =  5.0
     Generated using FHI98PP, converted with fhi2upf.x v.5.0.2
     Using radial grid of  499 points,  3 beta functions with: 
                l(1) =   0
                l(2) =   1
                l(3) =   3

     atomic species   valence    mass     pseudopotential
        Si             4.00    28.08550     Si( 1.00)
        P              5.00    30.97376      P( 1.00)

     24 Sym. Ops. (no inversion) found



   Cartesian axes

     site n.     atom                  positions (alat units)
         1           P   tau(   1) = (   0.0000000   0.0000000   0.0000000  )
         2           Si  tau(   2) = (   0.2500000   0.2500000   0.2500000  )

     number of k points=    10  Marzari-Vanderbilt smearing, width (Ry)=  0.0500
                       cart. coord. in units 2pi/alat
        k(    1) = (   0.0000000   0.0000000   0.0000000), wk =   0.0160000
        k(    2) = (  -0.2000000   0.2000000  -0.2000000), wk =   0.1280000
        k(    3) = (  -0.4000000   0.4000000  -0.4000000), wk =   0.1280000
        k(    4) = (   0.0000000   0.4000000   0.0000000), wk =   0.0960000
        k(    5) = (  -0.2000000   0.6000000  -0.2000000), wk =   0.3840000
        k(    6) = (   0.6000000  -0.2000000   0.6000000), wk =   0.3840000
        k(    7) = (   0.4000000   0.0000000   0.4000000), wk =   0.1920000
        k(    8) = (   0.0000000   0.8000000   0.0000000), wk =   0.0960000
        k(    9) = (   0.8000000   0.0000000   0.8000000), wk =   0.1920000
        k(   10) = (   0.6000000  -0.2000000   1.0000000), wk =   0.3840000

     Dense  grid:    12939 G-vectors     FFT dimensions: (  36,  36,  36)

     Largest allocated arrays     est. size (Mb)     dimensions
        Kohn-Sham Wavefunctions         0.30 Mb     (    1639,   12)
        NL pseudopotentials             0.55 Mb     (    1639,   22)
        Each V/rho on FFT grid          0.71 Mb     (   46656)
        Each G-vector array             0.10 Mb     (   12939)
        G-vector shells                 0.00 Mb     (     180)
     Largest temporary arrays     est. size (Mb)     dimensions
        Auxiliary wavefunctions         1.20 Mb     (    1639,   48)
        Each subspace H/S matrix        0.04 Mb     (      48,   48)
        Each <psi_i|beta_j> matrix      0.00 Mb     (      22,   12)
        Arrays for rho mixing           5.70 Mb     (   46656,    8)

     Initial potential from superposition of free atoms

     starting charge    8.99918, renormalised to    9.00000
     Starting wfc are   32 randomized atomic wfcs

     total cpu time spent up to now is        1.1 secs

     per-process dynamical memory:    17.4 Mb

     Self-consistent Calculation

     iteration #  1     ecut=    50.00 Ry     beta=0.30
     Davidson diagonalization with overlap
     ethr =  1.00E-02,  avg # of iterations =  3.9

     Threshold (ethr) on eigenvalues was too large:
     Diagonalizing with lowered threshold

     Davidson diagonalization with overlap
     ethr =  3.85E-04,  avg # of iterations =  1.3

     total cpu time spent up to now is        2.8 secs

     total energy              =     -21.06023854 Ry
     Harris-Foulkes estimate   =     -21.06622821 Ry
     estimated scf accuracy    <       0.03486304 Ry

     iteration #  2     ecut=    50.00 Ry     beta=0.30
     Davidson diagonalization with overlap
     ethr =  3.87E-04,  avg # of iterations =  1.0

     total cpu time spent up to now is        3.5 secs

     total energy              =     -21.05847701 Ry
     Harris-Foulkes estimate   =     -21.06112277 Ry
     estimated scf accuracy    <       0.01286248 Ry

     iteration #  3     ecut=    50.00 Ry     beta=0.30
     Davidson diagonalization with overlap
     ethr =  1.43E-04,  avg # of iterations =  1.2

     total cpu time spent up to now is        4.4 secs

     total energy              =     -21.05892879 Ry
     Harris-Foulkes estimate   =     -21.05911103 Ry
     estimated scf accuracy    <       0.00117282 Ry

     iteration #  4     ecut=    50.00 Ry     beta=0.30
     Davidson diagonalization with overlap
     ethr =  1.30E-05,  avg # of iterations =  2.3

     total cpu time spent up to now is        5.4 secs

     total energy              =     -21.05898388 Ry
     Harris-Foulkes estimate   =     -21.05898729 Ry
     estimated scf accuracy    <       0.00003768 Ry

     iteration #  5     ecut=    50.00 Ry     beta=0.30
     Davidson diagonalization with overlap
     ethr =  4.19E-07,  avg # of iterations =  2.5

     total cpu time spent up to now is        6.7 secs

     total energy              =     -21.05898597 Ry
     Harris-Foulkes estimate   =     -21.05898690 Ry
     estimated scf accuracy    <       0.00000270 Ry

     iteration #  6     ecut=    50.00 Ry     beta=0.30
     Davidson diagonalization with overlap
     ethr =  3.00E-08,  avg # of iterations =  1.9

     total cpu time spent up to now is        7.8 secs

     total energy              =     -21.05898659 Ry
     Harris-Foulkes estimate   =     -21.05898643 Ry
     estimated scf accuracy    <       0.00000005 Ry

     iteration #  7     ecut=    50.00 Ry     beta=0.30
     Davidson diagonalization with overlap
     ethr =  5.64E-10,  avg # of iterations =  2.8

     total cpu time spent up to now is        8.9 secs

     total energy              =     -21.05898663 Ry
     Harris-Foulkes estimate   =     -21.05898663 Ry
     estimated scf accuracy    <          6.4E-09 Ry

     iteration #  8     ecut=    50.00 Ry     beta=0.30
     Davidson diagonalization with overlap
     ethr =  7.12E-11,  avg # of iterations =  2.0

     total cpu time spent up to now is        9.9 secs

     End of self-consistent calculation

          k = 0.0000 0.0000 0.0000 (  1639 PWs)   bands (ev):

    -7.0970   4.7900   4.7900   4.7900   6.5835   8.3182   8.3182   8.3182
    13.8725  13.9338  13.9338  17.4566

          k =-0.2000 0.2000-0.2000 (  1606 PWs)   bands (ev):

    -6.6352   1.8667   4.3509   4.3509   7.0420   8.9963   8.9963  10.2572
    13.3068  13.3068  15.1437  16.9498

          k =-0.4000 0.4000-0.4000 (  1616 PWs)   bands (ev):

    -5.5126  -1.0317   3.8666   3.8666   6.4591   9.2550   9.2550  13.2857
    14.9521  14.9521  15.1240  18.8662

          k = 0.0000 0.4000 0.0000 (  1607 PWs)   bands (ev):

    -6.4753   1.9295   3.6346   3.6346   7.2407   8.7405  10.2647  10.2647
    12.1308  14.6945  16.1845  18.5789

          k =-0.2000 0.6000-0.2000 (  1619 PWs)   bands (ev):

    -5.5129  -0.3650   2.6109   3.1720   7.4032   9.2994  10.4312  10.9713
    14.8620  16.0822  16.5838  18.4653

          k = 0.6000-0.2000 0.6000 (  1596 PWs)   bands (ev):

    -4.8910  -1.4175   1.8887   3.3944   7.5516   9.8250  10.4818  12.7031
    13.7807  14.4105  17.6177  18.9676

          k = 0.4000 0.0000 0.4000 (  1610 PWs)   bands (ev):

    -5.9175   0.3528   2.3857   4.1105   7.9887   9.5869   9.6757  10.7634
    12.4265  15.7012  16.4276  18.0753

          k = 0.0000 0.8000 0.0000 (  1624 PWs)   bands (ev):

    -4.8237  -1.1907   2.5546   2.5546   6.4033   7.1642  13.5827  13.5827
    15.1781  16.9478  18.1211  18.1211

          k = 0.8000 0.0000 0.8000 (  1622 PWs)   bands (ev):

    -4.2463  -1.8432   1.4588   2.6542   6.8326   8.7447  13.2468  13.4088
    13.8969  15.1888  18.6027  20.0997

          k = 0.6000-0.2000 1.0000 (  1616 PWs)   bands (ev):

    -4.5677  -1.4170   1.5153   2.3905   8.8305   9.3507   9.8991  12.9784
    13.8099  15.5670  18.4406  19.7624

     the Fermi energy is     7.4606 ev

!    total energy              =     -21.05898663 Ry
     Harris-Foulkes estimate   =     -21.05898663 Ry
     estimated scf accuracy    <          2.0E-10 Ry

     The total energy is the sum of the following terms:

     one-electron contribution =       4.29898297 Ry
     hartree contribution      =       1.81230251 Ry
     xc contribution           =      -5.72148445 Ry
     ewald contribution        =     -21.44312514 Ry
     smearing contrib. (-TS)   =      -0.00566253 Ry

     convergence has been achieved in   8 iterations

     Forces acting on atoms (Ry/au):

     atom    1 type  2   force =     0.00000000   -0.00000000   -0.00000000
     atom    2 type  1   force =    -0.00000000   -0.00000000    0.00000000

     Total force =     0.000000     Total SCF correction =     0.000000


     entering subroutine stress ...

          total   stress  (Ry/bohr**3)                   (kbar)     P=  -34.38
  -0.00023374   0.00000000   0.00000000        -34.38      0.00      0.00
   0.00000000  -0.00023374  -0.00000000          0.00    -34.38     -0.00
   0.00000000  -0.00000000  -0.00023374          0.00     -0.00    -34.38


     Writing output data file Si.save

     init_run     :      1.01s CPU      1.04s WALL (       1 calls)
     electrons    :      8.47s CPU      8.83s WALL (       1 calls)
     forces       :      0.09s CPU      0.09s WALL (       1 calls)
     stress       :      0.61s CPU      0.62s WALL (       1 calls)

     Called by init_run:
     wfcinit      :      0.77s CPU      0.77s WALL (       1 calls)
     potinit      :      0.05s CPU      0.06s WALL (       1 calls)

     Called by electrons:
     c_bands      :      6.68s CPU      6.97s WALL (       9 calls)
     sum_band     :      1.43s CPU      1.49s WALL (       9 calls)
     v_of_rho     :      0.38s CPU      0.38s WALL (       9 calls)
     mix_rho      :      0.02s CPU      0.02s WALL (       9 calls)

     Called by c_bands:
     init_us_2    :      0.30s CPU      0.32s WALL (     210 calls)
     cegterg      :      6.46s CPU      6.73s WALL (      90 calls)

     Called by *egterg:
     h_psi        :      6.43s CPU      6.69s WALL (     289 calls)
     g_psi        :      0.01s CPU      0.01s WALL (     189 calls)
     cdiaghg      :      0.08s CPU      0.09s WALL (     269 calls)

     Called by h_psi:
     add_vuspsi   :      0.18s CPU      0.20s WALL (     289 calls)

     General routines
     calbec       :      0.23s CPU      0.24s WALL (     309 calls)
     fft          :      0.15s CPU      0.16s WALL (     108 calls)
     fftw         :      6.80s CPU      7.07s WALL (    6492 calls)
     davcio       :      0.00s CPU      0.00s WALL (      10 calls)

     Parallel routines
     fft_scatter  :      0.19s CPU      0.20s WALL (    6600 calls)

     PWSCF        :    10.30s CPU        10.73s WALL


   This run was terminated on:  14:55:51  13Feb2023            

=------------------------------------------------------------------------------=
   JOB DONE.
=------------------------------------------------------------------------------=
