
     Program PWSCF v.5.1 starts on 13Feb2023 at 14:47:22 

     This program is part of the open-source Quantum ESPRESSO suite
     for quantum simulation of materials; please cite
         "P. Giannozzi et al., J. Phys.:Condens. Matter 21 395502 (2009);
          URL http://www.quantum-espresso.org", 
     in publications or presentations arising from this work. More details at
     http://www.quantum-espresso.org/quote

     Parallel version (MPI), running on     1 processors
     Waiting for input...
     Reading input from standard input
Warning: card    B   -0.50    0.00    0.50 ignored
Warning: card    SI   -0.25    0.25    0.75 ignored

     Current dimensions of program PWSCF are:
     Max number of different atomic species (ntypx) = 10
     Max number of k-points (npk) =  40000
     Max angular momentum in pseudopotentials (lmaxx) =  3
               file Si.pbe-mt_fhi.UPF: wavefunction(s)  4f renormalized
               file B.pbe-mt_fhi.UPF: wavefunction(s)  4f renormalized

     Subspace diagonalization in iterative solution of the eigenvalue problem:
     a serial algorithm will be used


     G-vector sticks info
     --------------------
     sticks:   dense  smooth     PW     G-vecs:    dense   smooth      PW
     Sum         733     733    211                12939    12939    2109



     bravais-lattice index     =            2
     lattice parameter (alat)  =      10.2623  a.u.
     unit-cell volume          =     270.1967 (a.u.)^3
     number of atoms/cell      =            2
     number of atomic types    =            2
     number of electrons       =         6.00
     number of Kohn-Sham states=           12
     kinetic-energy cutoff     =      50.0000  Ry
     charge density cutoff     =     200.0000  Ry
     convergence threshold     =      1.6E-09
     mixing beta               =       0.3000
     number of iterations used =            8  plain     mixing
     Exchange-correlation      = PBE ( 1  4  3  4 0)

     celldm(1)=  10.262347  celldm(2)=   0.000000  celldm(3)=   0.000000
     celldm(4)=   0.000000  celldm(5)=   0.000000  celldm(6)=   0.000000

     crystal axes: (cart. coord. in units of alat)
               a(1) = (  -0.500000   0.000000   0.500000 )  
               a(2) = (   0.000000   0.500000   0.500000 )  
               a(3) = (  -0.500000   0.500000   0.000000 )  

     reciprocal axes: (cart. coord. in units 2 pi/alat)
               b(1) = ( -1.000000 -1.000000  1.000000 )  
               b(2) = (  1.000000  1.000000  1.000000 )  
               b(3) = ( -1.000000  1.000000 -1.000000 )  


     PseudoPot. # 1 for Si read from file:
     /home/acedemo/psudo/Si.pbe-mt_fhi.UPF
     MD5 check sum: 259057c2adf9952f9ced37ae3d9e311d
     Pseudo is Norm-conserving, Zval =  4.0
     Generated using FHI98PP, converted with fhi2upf.x v.5.0.2
     Using radial grid of  495 points,  3 beta functions with: 
                l(1) =   0
                l(2) =   1
                l(3) =   3

     PseudoPot. # 2 for  B read from file:
     /home/acedemo/psudo/B.pbe-mt_fhi.UPF
     MD5 check sum: 3ba04917d1d3a8de85490f79a9c37fe5
     Pseudo is Norm-conserving + core correction, Zval =  3.0
     Generated using FHI98PP, converted with fhi2upf.x v.5.0.2
     Using radial grid of  453 points,  3 beta functions with: 
                l(1) =   0
                l(2) =   1
                l(3) =   3

     atomic species   valence    mass     pseudopotential
        Si             4.00    28.08550     Si( 1.00)
        B              3.00    10.81100      B( 1.00)

     48 Sym. Ops., with inversion, found (24 have fractional translation)



   Cartesian axes

     site n.     atom                  positions (alat units)
         1           B   tau(   1) = (   0.0000000   0.0000000   0.0000000  )
         2           B   tau(   2) = (   0.2500000   0.2500000   0.2500000  )

     number of k points=    10  Marzari-Vanderbilt smearing, width (Ry)=  0.0500
                       cart. coord. in units 2pi/alat
        k(    1) = (   0.0000000   0.0000000   0.0000000), wk =   0.0160000
        k(    2) = (  -0.2000000   0.2000000  -0.2000000), wk =   0.1280000
        k(    3) = (  -0.4000000   0.4000000  -0.4000000), wk =   0.1280000
        k(    4) = (   0.0000000   0.4000000   0.0000000), wk =   0.0960000
        k(    5) = (  -0.2000000   0.6000000  -0.2000000), wk =   0.3840000
        k(    6) = (   0.6000000  -0.2000000   0.6000000), wk =   0.3840000
        k(    7) = (   0.4000000   0.0000000   0.4000000), wk =   0.1920000
        k(    8) = (   0.0000000   0.8000000   0.0000000), wk =   0.0960000
        k(    9) = (   0.8000000   0.0000000   0.8000000), wk =   0.1920000
        k(   10) = (   0.6000000  -0.2000000   1.0000000), wk =   0.3840000

     Dense  grid:    12939 G-vectors     FFT dimensions: (  36,  36,  36)

     Largest allocated arrays     est. size (Mb)     dimensions
        Kohn-Sham Wavefunctions         0.30 Mb     (    1639,   12)
        NL pseudopotentials             0.55 Mb     (    1639,   22)
        Each V/rho on FFT grid          0.71 Mb     (   46656)
        Each G-vector array             0.10 Mb     (   12939)
        G-vector shells                 0.00 Mb     (     180)
     Largest temporary arrays     est. size (Mb)     dimensions
        Auxiliary wavefunctions         1.20 Mb     (    1639,   48)
        Each subspace H/S matrix        0.04 Mb     (      48,   48)
        Each <psi_i|beta_j> matrix      0.00 Mb     (      22,   12)
        Arrays for rho mixing           5.70 Mb     (   46656,    8)

     Check: negative/imaginary core charge=   -0.000071    0.000000

     Initial potential from superposition of free atoms

     starting charge    5.99946, renormalised to    6.00000
     Starting wfc are   32 randomized atomic wfcs

     total cpu time spent up to now is        1.1 secs

     per-process dynamical memory:    17.4 Mb

     Self-consistent Calculation

     iteration #  1     ecut=    50.00 Ry     beta=0.30
     Davidson diagonalization with overlap
     ethr =  1.00E-02,  avg # of iterations =  3.3

     Threshold (ethr) on eigenvalues was too large:
     Diagonalizing with lowered threshold

     Davidson diagonalization with overlap
     ethr =  1.07E-04,  avg # of iterations =  1.7

     total cpu time spent up to now is        3.5 secs

     total energy              =     -13.07004621 Ry
     Harris-Foulkes estimate   =     -13.06911038 Ry
     estimated scf accuracy    <       0.00576065 Ry

     iteration #  2     ecut=    50.00 Ry     beta=0.30
     Davidson diagonalization with overlap
     ethr =  9.60E-05,  avg # of iterations =  1.0

     total cpu time spent up to now is        4.5 secs

     total energy              =     -13.07090052 Ry
     Harris-Foulkes estimate   =     -13.07008475 Ry
     estimated scf accuracy    <       0.00286809 Ry

     iteration #  3     ecut=    50.00 Ry     beta=0.30
     Davidson diagonalization with overlap
     ethr =  4.78E-05,  avg # of iterations =  1.0

     total cpu time spent up to now is        5.5 secs

     total energy              =     -13.07100063 Ry
     Harris-Foulkes estimate   =     -13.07100603 Ry
     estimated scf accuracy    <       0.00002397 Ry

     iteration #  4     ecut=    50.00 Ry     beta=0.30
     Davidson diagonalization with overlap
     ethr =  4.00E-07,  avg # of iterations =  1.9

     total cpu time spent up to now is        6.6 secs

     total energy              =     -13.07100274 Ry
     Harris-Foulkes estimate   =     -13.07100248 Ry
     estimated scf accuracy    <       0.00000177 Ry

     iteration #  5     ecut=    50.00 Ry     beta=0.30
     Davidson diagonalization with overlap
     ethr =  2.95E-08,  avg # of iterations =  2.0

     total cpu time spent up to now is        7.6 secs

     total energy              =     -13.07100300 Ry
     Harris-Foulkes estimate   =     -13.07100303 Ry
     estimated scf accuracy    <       0.00000021 Ry

     iteration #  6     ecut=    50.00 Ry     beta=0.30
     Davidson diagonalization with overlap
     ethr =  3.45E-09,  avg # of iterations =  1.7

     total cpu time spent up to now is        8.5 secs

     total energy              =     -13.07100299 Ry
     Harris-Foulkes estimate   =     -13.07100300 Ry
     estimated scf accuracy    <       0.00000010 Ry

     iteration #  7     ecut=    50.00 Ry     beta=0.30
     Davidson diagonalization with overlap
     ethr =  1.62E-09,  avg # of iterations =  1.0

     total cpu time spent up to now is        9.5 secs

     End of self-consistent calculation

          k = 0.0000 0.0000 0.0000 (  1639 PWs)   bands (ev):

    -8.0309   1.9925   1.9925   1.9925   3.1028   4.6275   4.6275   4.6275
    10.3929  15.2113  15.2113  15.9072

          k =-0.2000 0.2000-0.2000 (  1606 PWs)   bands (ev):

    -7.5853  -0.4720   1.5333   1.5333   3.5894   5.2369   5.2369   6.0186
    11.1744  13.6463  13.6463  14.5454

          k =-0.4000 0.4000-0.4000 (  1616 PWs)   bands (ev):

    -6.4291  -3.1097   1.0362   1.0362   3.3140   5.8219   5.8219   8.0274
    11.7589  13.2572  14.0112  14.0112

          k = 0.0000 0.4000 0.0000 (  1607 PWs)   bands (ev):

    -7.4327  -0.3636   0.8909   0.8909   4.1202   4.7337   6.1276   6.1276
    11.4302  11.5367  16.0147  17.2220

          k =-0.2000 0.6000-0.2000 (  1619 PWs)   bands (ev):

    -6.4628  -2.4294   0.0191   0.4391   4.3319   5.3070   6.8376   7.1615
    11.4602  11.9438  15.5476  16.2708

          k = 0.6000-0.2000 0.6000 (  1596 PWs)   bands (ev):

    -5.7334  -3.5216  -0.6026   0.6187   4.3196   6.1823   6.5836   7.7984
    11.0533  12.7231  13.8656  16.1914

          k = 0.4000 0.0000 0.4000 (  1610 PWs)   bands (ev):

    -6.8754  -1.7682  -0.1812   1.2708   4.3203   5.6815   6.0207   6.7920
    11.6358  12.6407  12.9833  17.5548

          k = 0.0000 0.8000 0.0000 (  1624 PWs)   bands (ev):

    -5.7254  -3.2088  -0.1256  -0.1256   3.7900   4.4661   8.0098   8.0098
    11.1295  12.3227  17.7660  18.4221

          k = 0.8000 0.0000 0.8000 (  1622 PWs)   bands (ev):

    -4.7480  -4.2250  -1.0206  -0.0420   4.1727   5.5076   7.8719   7.8817
    10.9329  12.2589  15.4514  17.9427

          k = 0.6000-0.2000 1.0000 (  1616 PWs)   bands (ev):

    -5.3704  -3.5244  -0.9573  -0.2121   5.3830   5.5693   6.8917   7.6101
    11.2136  11.7625  15.4164  17.1892

     the Fermi energy is     0.1464 ev

!    total energy              =     -13.07100299 Ry
     Harris-Foulkes estimate   =     -13.07100299 Ry
     estimated scf accuracy    <          4.3E-11 Ry

     The total energy is the sum of the following terms:

     one-electron contribution =       1.04889182 Ry
     hartree contribution      =       1.11537541 Ry
     xc contribution           =      -5.78257628 Ry
     ewald contribution        =      -9.44836188 Ry
     smearing contrib. (-TS)   =      -0.00433207 Ry

     convergence has been achieved in   7 iterations

     Forces acting on atoms (Ry/au):

     atom    1 type  2   force =     0.00000000    0.00000000    0.00000000
     atom    2 type  2   force =     0.00000000    0.00000000    0.00000000

     Total force =     0.000000     Total SCF correction =     0.000000


     entering subroutine stress ...

          total   stress  (Ry/bohr**3)                   (kbar)     P= -254.61
  -0.00173080   0.00000000   0.00000000       -254.61      0.00      0.00
   0.00000000  -0.00173080  -0.00000000          0.00   -254.61     -0.00
   0.00000000  -0.00000000  -0.00173080          0.00     -0.00   -254.61


     Writing output data file Si.save

     init_run     :      1.01s CPU      1.02s WALL (       1 calls)
     electrons    :      8.10s CPU      8.43s WALL (       1 calls)
     forces       :      0.13s CPU      0.13s WALL (       1 calls)
     stress       :      0.63s CPU      0.64s WALL (       1 calls)

     Called by init_run:
     wfcinit      :      0.78s CPU      0.78s WALL (       1 calls)
     potinit      :      0.05s CPU      0.05s WALL (       1 calls)

     Called by electrons:
     c_bands      :      6.28s CPU      6.59s WALL (       8 calls)
     sum_band     :      1.49s CPU      1.50s WALL (       8 calls)
     v_of_rho     :      0.34s CPU      0.35s WALL (       8 calls)
     mix_rho      :      0.02s CPU      0.02s WALL (       8 calls)

     Called by c_bands:
     init_us_2    :      0.29s CPU      0.29s WALL (     190 calls)
     cegterg      :      6.06s CPU      6.36s WALL (      80 calls)

     Called by *egterg:
     h_psi        :      6.10s CPU      6.38s WALL (     226 calls)
     g_psi        :      0.01s CPU      0.01s WALL (     136 calls)
     cdiaghg      :      0.07s CPU      0.07s WALL (     206 calls)

     Called by h_psi:
     add_vuspsi   :      0.18s CPU      0.18s WALL (     226 calls)

     General routines
     calbec       :      0.22s CPU      0.23s WALL (     246 calls)
     fft          :      0.17s CPU      0.17s WALL (     114 calls)
     fftw         :      6.46s CPU      6.73s WALL (    5680 calls)
     davcio       :      0.00s CPU      0.00s WALL (      10 calls)

     Parallel routines
     fft_scatter  :      0.19s CPU      0.19s WALL (    5794 calls)

     PWSCF        :     9.99s CPU        10.35s WALL


   This run was terminated on:  14:47:33  13Feb2023            

=------------------------------------------------------------------------------=
   JOB DONE.
=------------------------------------------------------------------------------=
