
     Program PWSCF v.5.1 starts on 16Feb2023 at  2: 4:57 

     This program is part of the open-source Quantum ESPRESSO suite
     for quantum simulation of materials; please cite
         "P. Giannozzi et al., J. Phys.:Condens. Matter 21 395502 (2009);
          URL http://www.quantum-espresso.org", 
     in publications or presentations arising from this work. More details at
     http://www.quantum-espresso.org/quote

     Parallel version (MPI), running on     1 processors
     Waiting for input...
     Reading input from standard input

     Current dimensions of program PWSCF are:
     Max number of different atomic species (ntypx) = 10
     Max number of k-points (npk) =  40000
     Max angular momentum in pseudopotentials (lmaxx) =  3

     Atomic positions and unit cell read from directory:
     ./out/Si.save/

               file Si.pbe-mt_fhi.UPF: wavefunction(s)  4f renormalized
               file P.pbe-mt_fhi.UPF: wavefunction(s)  4f renormalized

     Subspace diagonalization in iterative solution of the eigenvalue problem:
     a serial algorithm will be used


     G-vector sticks info
     --------------------
     sticks:   dense  smooth     PW     G-vecs:    dense   smooth      PW
     Sum         733     733    211                12939    12939    2109



     bravais-lattice index     =            2
     lattice parameter (alat)  =      10.2623  a.u.
     unit-cell volume          =     270.1967 (a.u.)^3
     number of atoms/cell      =            2
     number of atomic types    =            2
     number of electrons       =         2.00
     number of Kohn-Sham states=           10
     kinetic-energy cutoff     =      50.0000  Ry
     charge density cutoff     =     200.0000  Ry
     Exchange-correlation      = PBE ( 1  4  3  4 0)

     celldm(1)=  10.262347  celldm(2)=   0.000000  celldm(3)=   0.000000
     celldm(4)=   0.000000  celldm(5)=   0.000000  celldm(6)=   0.000000

     crystal axes: (cart. coord. in units of alat)
               a(1) = (  -0.500000   0.000000   0.500000 )  
               a(2) = (   0.000000   0.500000   0.500000 )  
               a(3) = (  -0.500000   0.500000   0.000000 )  

     reciprocal axes: (cart. coord. in units 2 pi/alat)
               b(1) = ( -1.000000 -1.000000  1.000000 )  
               b(2) = (  1.000000  1.000000  1.000000 )  
               b(3) = ( -1.000000  1.000000 -1.000000 )  


     PseudoPot. # 1 for Si read from file:
     /home/acedemo/psudo/Si.pbe-mt_fhi.UPF
     MD5 check sum: 259057c2adf9952f9ced37ae3d9e311d
     Pseudo is Norm-conserving, Zval =  4.0
     Generated using FHI98PP, converted with fhi2upf.x v.5.0.2
     Using radial grid of  495 points,  3 beta functions with: 
                l(1) =   0
                l(2) =   1
                l(3) =   3

     PseudoPot. # 2 for  P read from file:
     /home/acedemo/psudo/P.pbe-mt_fhi.UPF
     MD5 check sum: 7191c457fb61afa58d0f00d0e4a443c1
     Pseudo is Norm-conserving, Zval =  5.0
     Generated using FHI98PP, converted with fhi2upf.x v.5.0.2
     Using radial grid of  499 points,  3 beta functions with: 
                l(1) =   0
                l(2) =   1
                l(3) =   3

     atomic species   valence    mass     pseudopotential
        Si             4.00    28.08550     Si( 1.00)
        P              5.00    30.97376      P( 1.00)

     24 Sym. Ops. (no inversion) found



   Cartesian axes

     site n.     atom                  positions (alat units)
         1           Si  tau(   1) = (   0.0000000   0.0000000   0.0000000  )
         2           P   tau(   2) = (   0.2500000   0.2500000   0.2500000  )

     number of k points=    51  Marzari-Vanderbilt smearing, width (Ry)=  0.0500
                       cart. coord. in units 2pi/alat
        k(    1) = (   0.5000000   0.5000000   0.5000000), wk =   0.0000000
        k(    2) = (   0.4500000   0.4500000   0.4500000), wk =   0.0014779
        k(    3) = (   0.4000000   0.4000000   0.4000000), wk =   0.0029558
        k(    4) = (   0.3500000   0.3500000   0.3500000), wk =   0.0044337
        k(    5) = (   0.3000000   0.3000000   0.3000000), wk =   0.0059116
        k(    6) = (   0.2500000   0.2500000   0.2500000), wk =   0.0073895
        k(    7) = (   0.2000000   0.2000000   0.2000000), wk =   0.0088674
        k(    8) = (   0.1500000   0.1500000   0.1500000), wk =   0.0103453
        k(    9) = (   0.1000000   0.1000000   0.1000000), wk =   0.0118232
        k(   10) = (   0.0500000   0.0500000   0.0500000), wk =   0.0133011
        k(   11) = (   0.0000000   0.0000000   0.0000000), wk =   0.0147790
        k(   12) = (   0.0000000   0.1000000   0.0000000), wk =   0.0168691
        k(   13) = (   0.0000000   0.2000000   0.0000000), wk =   0.0189591
        k(   14) = (   0.0000000   0.3000000   0.0000000), wk =   0.0210492
        k(   15) = (   0.0000000   0.4000000   0.0000000), wk =   0.0231392
        k(   16) = (   0.0000000   0.5000000   0.0000000), wk =   0.0252293
        k(   17) = (   0.0000000   0.6000000   0.0000000), wk =   0.0273194
        k(   18) = (   0.0000000   0.7000000   0.0000000), wk =   0.0294094
        k(   19) = (   0.0000000   0.8000000   0.0000000), wk =   0.0314995
        k(   20) = (   0.0000000   0.9000000   0.0000000), wk =   0.0335896
        k(   21) = (   0.0000000   1.0000000   0.0000000), wk =   0.0356796
        k(   22) = (   0.0000000   0.9750000   0.0750000), wk =   0.0370621
        k(   23) = (   0.0000000   0.9500000   0.1500000), wk =   0.0384445
        k(   24) = (  -0.0000000   0.9250000   0.2250000), wk =   0.0398270
        k(   25) = (  -0.0000000   0.9000000   0.3000000), wk =   0.0412094
        k(   26) = (   0.0000000   0.8750000   0.3750000), wk =   0.0425919
        k(   27) = (   0.0000000   0.8500000   0.4500000), wk =   0.0439743
        k(   28) = (   0.0000000   0.8250000   0.5250000), wk =   0.0453568
        k(   29) = (  -0.0000000   0.8000000   0.6000000), wk =   0.0467392
        k(   30) = (  -0.0000000   0.7750000   0.6750000), wk =   0.0481217
        k(   31) = (   0.0000000   0.7500000   0.7500000), wk =   0.0495041
        k(   32) = (   0.0000000   0.7250000   0.7750000), wk =   0.0500266
        k(   33) = (   0.0000000   0.7000000   0.8000000), wk =   0.0505491
        k(   34) = (   0.0000000   0.6750000   0.8250000), wk =   0.0510717
        k(   35) = (   0.0000000   0.6500000   0.8500000), wk =   0.0515942
        k(   36) = (   0.0000000   0.6250000   0.8750000), wk =   0.0521167
        k(   37) = (   0.0000000   0.6000000   0.9000000), wk =   0.0526392
        k(   38) = (   0.0000000   0.5750000   0.9250000), wk =   0.0531617
        k(   39) = (   0.0000000   0.5500000   0.9500000), wk =   0.0536842
        k(   40) = (   0.0000000   0.5250000   0.9750000), wk =   0.0542067
        k(   41) = (   0.0000000   0.5000000   1.0000000), wk =   0.0547293
        k(   42) = (   0.0000000   0.4500000   0.9000000), wk =   0.0574942
        k(   43) = (  -0.0000000   0.4000000   0.8000000), wk =   0.0602591
        k(   44) = (  -0.0000000   0.3500000   0.7000000), wk =   0.0630239
        k(   45) = (  -0.0000000   0.3000000   0.6000000), wk =   0.0657888
        k(   46) = (   0.0000000   0.2500000   0.5000000), wk =   0.0685537
        k(   47) = (   0.0000000   0.2000000   0.4000000), wk =   0.0713186
        k(   48) = (   0.0000000   0.1500000   0.3000000), wk =   0.0740835
        k(   49) = (  -0.0000000   0.1000000   0.2000000), wk =   0.0768484
        k(   50) = (  -0.0000000   0.0500000   0.1000000), wk =   0.0796133
        k(   51) = (   0.0000000   0.0000000   0.0000000), wk =   0.0823782

     Dense  grid:    12939 G-vectors     FFT dimensions: (  36,  36,  36)

     Largest allocated arrays     est. size (Mb)     dimensions
        Kohn-Sham Wavefunctions         0.25 Mb     (    1639,   10)
        NL pseudopotentials             0.55 Mb     (    1639,   22)
        Each V/rho on FFT grid          0.71 Mb     (   46656)
        Each G-vector array             0.10 Mb     (   12939)
        G-vector shells                 0.00 Mb     (     180)
     Largest temporary arrays     est. size (Mb)     dimensions
        Auxiliary wavefunctions         1.00 Mb     (    1639,   40)
        Each subspace H/S matrix        0.02 Mb     (      40,   40)
        Each <psi_i|beta_j> matrix      0.00 Mb     (      22,   10)

     The potential is recalculated from file :
     ./out/Si.save/charge-density.dat

     Starting wfc are   32 randomized atomic wfcs

     Band Structure Calculation
     Davidson diagonalization with overlap

     ethr =  8.00E-11,  avg # of iterations = 15.0

     total cpu time spent up to now is       30.5 secs

     End of band structure calculation

          k = 0.5000 0.5000 0.5000 (  1622 PWs)   bands (ev):

    -6.0287  -0.5208   3.3393   3.3393   7.9727  11.5972  11.5972  15.6951
    17.6580  17.6580

          k = 0.4500 0.4500 0.4500 (  1610 PWs)   bands (ev):

    -6.0660  -0.4362   3.3506   3.3506   7.9801  11.5836  11.5836  15.3574
    17.4039  17.4039

          k = 0.4000 0.4000 0.4000 (  1616 PWs)   bands (ev):

    -6.1701  -0.1917   3.3837   3.3837   7.9994  11.5394  11.5394  14.6203
    16.9245  16.9245

          k = 0.3500 0.3500 0.3500 (  1610 PWs)   bands (ev):

    -6.3201   0.1902   3.4366   3.4366   8.0216  11.4561  11.4561  13.7673
    16.4750  16.4750

          k = 0.3000 0.3000 0.3000 (  1615 PWs)   bands (ev):

    -6.4926   0.6816   3.5057   3.5057   8.0288  11.3265  11.3265  12.9120
    16.1379  16.1379

          k = 0.2500 0.2500 0.2500 (  1618 PWs)   bands (ev):

    -6.6666   1.2548   3.5857   3.5857   7.9913  11.1532  11.1532  12.1176
    15.9348  15.9348

          k = 0.2000 0.2000 0.2000 (  1606 PWs)   bands (ev):

    -6.8259   1.8823   3.6699   3.6699   7.8659  10.9530  10.9530  11.4423
    15.8547  15.8547

          k = 0.1500 0.1500 0.1500 (  1600 PWs)   bands (ev):

    -6.9595   2.5327   3.7497   3.7497   7.6118  10.7533  10.7533  10.9403
    15.8655  15.8655

          k = 0.1000 0.1000 0.1000 (  1606 PWs)   bands (ev):

    -7.0598   3.1579   3.8160   3.8160   7.2398  10.5845  10.5845  10.6299
    15.9234  15.9234

          k = 0.0500 0.0500 0.0500 (  1630 PWs)   bands (ev):

    -7.1218   3.6641   3.8600   3.8600   6.8604  10.4720  10.4720  10.4768
    15.9828  15.9828

          k = 0.0000 0.0000 0.0000 (  1639 PWs)   bands (ev):

    -7.1428   3.8755   3.8755   3.8755   6.6860  10.4325  10.4325  10.4325
    16.0073  16.0073

          k = 0.0000 0.1000 0.0000 (  1627 PWs)   bands (ev):

    -7.1148   3.6353   3.8347   3.8347   6.9191  10.4162  10.5220  10.5220
    15.8998  16.0501

          k = 0.0000 0.2000 0.0000 (  1599 PWs)   bands (ev):

    -7.0318   3.0763   3.7207   3.7207   7.4437  10.3802  10.7816  10.7816
    15.6228  16.1783

          k = 0.0000 0.3000 0.0000 (  1607 PWs)   bands (ev):

    -6.8969   2.4002   3.5546   3.5546   8.0162  10.3616  11.1890  11.1890
    15.2834  16.3905

          k = 0.0000 0.4000 0.0000 (  1607 PWs)   bands (ev):

    -6.7151   1.7006   3.3620   3.3620   8.4754  10.4064  11.7166  11.7166
    15.0108  16.6845

          k = 0.0000 0.5000 0.0000 (  1612 PWs)   bands (ev):

    -6.4947   1.0208   3.1660   3.1660   8.7382  10.5100  12.3373  12.3373
    14.9368  17.0561

          k = 0.0000 0.6000 0.0000 (  1620 PWs)   bands (ev):

    -6.2489   0.3893   2.9850   2.9850   8.8381  10.5789  13.0257  13.0257
    15.1605  17.4975

          k = 0.0000 0.7000 0.0000 (  1632 PWs)   bands (ev):

    -5.9976  -0.1666   2.8324   2.8324   8.8588  10.5495  13.7541  13.7541
    15.6868  17.9934

          k = 0.0000 0.8000 0.0000 (  1624 PWs)   bands (ev):

    -5.7703  -0.6131   2.7176   2.7176   8.8558  10.4570  14.4791  14.4791
    16.4316  18.5095

          k = 0.0000 0.9000 0.0000 (  1608 PWs)   bands (ev):

    -5.6066  -0.9090   2.6464   2.6464   8.8512  10.3688  15.1014  15.1014
    17.2697  18.5510

          k = 0.0000 1.0000 0.0000 (  1604 PWs)   bands (ev):

    -5.5461  -1.0136   2.6223   2.6223   8.8497  10.3338  15.3801  15.3801
    17.8177  18.2473

          k = 0.0000 0.9750 0.0750 (  1618 PWs)   bands (ev):

    -5.5496  -1.0028   2.6062   2.6161   8.9028  10.3949  15.2336  15.3112
    17.6022  17.8314

          k = 0.0000 0.9500 0.1500 (  1622 PWs)   bands (ev):

    -5.5589  -0.9730   2.5609   2.6014   9.0548  10.5748  14.7998  15.1307
    17.2666  17.4185

          k =-0.0000 0.9250 0.2250 (  1622 PWs)   bands (ev):

    -5.5723  -0.9312   2.4944   2.5882   9.2838  10.8639  14.1779  14.8778
    16.7669  17.3622

          k =-0.0000 0.9000 0.3000 (  1623 PWs)   bands (ev):

    -5.5873  -0.8870   2.4171   2.5893   9.5499  11.2467  13.5189  14.5813
    16.3333  17.3397

          k = 0.0000 0.8750 0.3750 (  1614 PWs)   bands (ev):

    -5.6009  -0.8508   2.3395   2.6150   9.7862  11.7013  12.9518  14.2720
    15.9589  17.2760

          k = 0.0000 0.8500 0.4500 (  1612 PWs)   bands (ev):

    -5.6107  -0.8299   2.2709   2.6673   9.8950  12.1799  12.6022  14.0030
    15.6361  17.1438

          k = 0.0000 0.8250 0.5250 (  1611 PWs)   bands (ev):

    -5.6146  -0.8274   2.2184   2.7375   9.8135  12.3381  12.7882  13.8750
    15.3609  16.9562

          k =-0.0000 0.8000 0.6000 (  1614 PWs)   bands (ev):

    -5.6117  -0.8411   2.1873   2.8056   9.6128  12.2264  13.2578  13.9988
    15.1436  16.7549

          k =-0.0000 0.7750 0.6750 (  1621 PWs)   bands (ev):

    -5.6020  -0.8660   2.1809   2.8456   9.4241  12.0220  13.7119  14.2590
    15.0459  16.6153

          k = 0.0000 0.7500 0.7500 (  1624 PWs)   bands (ev):

    -5.5867  -0.8956   2.2004   2.8351   9.3340  11.7764  14.0530  14.3814
    15.1934  16.6563

          k = 0.0000 0.7250 0.7750 (  1616 PWs)   bands (ev):

    -5.5856  -0.8962   2.2023   2.8273   9.3515  11.7805  14.0094  14.3676
    15.2189  16.6869

          k = 0.0000 0.7000 0.8000 (  1621 PWs)   bands (ev):

    -5.5827  -0.8979   2.2078   2.8046   9.4027  11.7935  13.9026  14.3084
    15.2967  16.7704

          k = 0.0000 0.6750 0.8250 (  1620 PWs)   bands (ev):

    -5.5780  -0.9007   2.2169   2.7688   9.4833  11.8168  13.7666  14.1932
    15.4199  16.8865

          k = 0.0000 0.6500 0.8500 (  1616 PWs)   bands (ev):

    -5.5717  -0.9046   2.2292   2.7232   9.5866  11.8533  13.6203  14.0360
    15.5724  17.0118

          k = 0.0000 0.6250 0.8750 (  1616 PWs)   bands (ev):

    -5.5646  -0.9094   2.2444   2.6713   9.7031  11.9076  13.4722  13.8564
    15.7392  17.1234

          k = 0.0000 0.6000 0.9000 (  1613 PWs)   bands (ev):

    -5.5569  -0.9148   2.2619   2.6175   9.8210  11.9854  13.3239  13.6722
    15.9088  17.2013

          k = 0.0000 0.5750 0.9250 (  1615 PWs)   bands (ev):

    -5.5496  -0.9205   2.2803   2.5663   9.9274  12.0933  13.1710  13.5017
    16.0707  17.2329

          k = 0.0000 0.5500 0.9500 (  1615 PWs)   bands (ev):

    -5.5432  -0.9259   2.2976   2.5229  10.0104  12.2355  13.0059  13.3637
    16.2123  17.2212

          k = 0.0000 0.5250 0.9750 (  1615 PWs)   bands (ev):

    -5.5387  -0.9299   2.3102   2.4933  10.0618  12.4071  12.8297  13.2710
    16.3147  17.1890

          k = 0.0000 0.5000 1.0000 (  1628 PWs)   bands (ev):

    -5.5371  -0.9316   2.3146   2.4829  10.0787  12.5403  12.7012  13.2346
    16.3532  17.1714

          k = 0.0000 0.4500 0.9000 (  1616 PWs)   bands (ev):

    -5.5705  -0.8870   2.2860   2.5807   9.9722  12.2174  12.7101  13.7470
    15.9299  17.2682

          k =-0.0000 0.4000 0.8000 (  1616 PWs)   bands (ev):

    -5.6825  -0.7247   2.3214   2.7516   9.7430  11.8265  12.6299  14.2529
    15.7456  16.9525

          k =-0.0000 0.3500 0.7000 (  1618 PWs)   bands (ev):

    -5.8711  -0.4171   2.4525   2.9432   9.4729  11.4685  12.5897  13.7550
    16.2276  16.8773

          k =-0.0000 0.3000 0.6000 (  1609 PWs)   bands (ev):

    -6.1127   0.0377   2.6604   3.1401   9.1891  11.1539  12.5288  13.0420
    15.7364  17.7713

          k = 0.0000 0.2500 0.5000 (  1610 PWs)   bands (ev):

    -6.3742   0.6237   2.9178   3.3310   8.8859  10.8877  12.2314  12.4655
    15.3355  17.2625

          k = 0.0000 0.2000 0.4000 (  1613 PWs)   bands (ev):

    -6.6249   1.3158   3.1945   3.5064   8.5332  10.6802  11.6631  11.9979
    15.2104  16.6854

          k = 0.0000 0.1500 0.3000 (  1607 PWs)   bands (ev):

    -6.8407   2.0815   3.4586   3.6573   8.0885  10.5411  11.1550  11.4138
    15.3577  16.3264

          k =-0.0000 0.1000 0.2000 (  1600 PWs)   bands (ev):

    -7.0051   2.8682   3.6782   3.7746   7.5352  10.4670  10.7650  10.8850
    15.6393  16.1293

          k =-0.0000 0.0500 0.1000 (  1623 PWs)   bands (ev):

    -7.1079   3.5599   3.8242   3.8496   6.9664  10.4386  10.5177  10.5458
    15.9004  16.0349

          k = 0.0000 0.0000 0.0000 (  1639 PWs)   bands (ev):

    -7.1428   3.8755   3.8755   3.8755   6.6860  10.4325  10.4325  10.4325
    16.0073  16.0073

     Writing output data file Si.save

     init_run     :      0.28s CPU      0.31s WALL (       1 calls)
     electrons    :     27.41s CPU     28.61s WALL (       1 calls)

     Called by init_run:
     wfcinit      :      0.00s CPU      0.00s WALL (       1 calls)
     potinit      :      0.05s CPU      0.05s WALL (       1 calls)

     Called by electrons:
     c_bands      :     27.41s CPU     28.61s WALL (       1 calls)
     v_of_rho     :      0.04s CPU      0.04s WALL (       1 calls)

     Called by c_bands:
     init_us_2    :      0.09s CPU      0.10s WALL (      51 calls)
     cegterg      :     21.43s CPU     22.28s WALL (      54 calls)

     Called by *egterg:
     h_psi        :     22.97s CPU     23.94s WALL (     869 calls)
     g_psi        :      0.06s CPU      0.06s WALL (     764 calls)
     cdiaghg      :      0.41s CPU      0.43s WALL (     815 calls)

     Called by h_psi:
     add_vuspsi   :      0.64s CPU      0.68s WALL (     869 calls)

     General routines
     calbec       :      0.72s CPU      0.76s WALL (     869 calls)
     fft          :      0.02s CPU      0.02s WALL (      10 calls)
     fftw         :     20.42s CPU     21.26s WALL (   15744 calls)
     davcio       :      0.00s CPU      0.01s WALL (      51 calls)

     Parallel routines
     fft_scatter  :      0.50s CPU      0.51s WALL (   15754 calls)

     PWSCF        :    29.21s CPU        30.67s WALL


   This run was terminated on:   2: 5:27  16Feb2023            

=------------------------------------------------------------------------------=
   JOB DONE.
=------------------------------------------------------------------------------=
