
     Program PWSCF v.5.1 starts on 16Feb2023 at  2: 4: 4 

     This program is part of the open-source Quantum ESPRESSO suite
     for quantum simulation of materials; please cite
         "P. Giannozzi et al., J. Phys.:Condens. Matter 21 395502 (2009);
          URL http://www.quantum-espresso.org", 
     in publications or presentations arising from this work. More details at
     http://www.quantum-espresso.org/quote

     Parallel version (MPI), running on     1 processors
     Waiting for input...
     Reading input from standard input

     Current dimensions of program PWSCF are:
     Max number of different atomic species (ntypx) = 10
     Max number of k-points (npk) =  40000
     Max angular momentum in pseudopotentials (lmaxx) =  3

     Atomic positions and unit cell read from directory:
     ./out/Si.save/

               file Si.pbe-mt_fhi.UPF: wavefunction(s)  4f renormalized
               file P.pbe-mt_fhi.UPF: wavefunction(s)  4f renormalized

     Subspace diagonalization in iterative solution of the eigenvalue problem:
     a serial algorithm will be used


     G-vector sticks info
     --------------------
     sticks:   dense  smooth     PW     G-vecs:    dense   smooth      PW
     Sum         733     733    223                12939    12939    2229



     bravais-lattice index     =            2
     lattice parameter (alat)  =      10.2623  a.u.
     unit-cell volume          =     270.1967 (a.u.)^3
     number of atoms/cell      =            2
     number of atomic types    =            2
     number of electrons       =         2.00
     number of Kohn-Sham states=           10
     kinetic-energy cutoff     =      50.0000  Ry
     charge density cutoff     =     200.0000  Ry
     Exchange-correlation      = PBE ( 1  4  3  4 0)

     celldm(1)=  10.262347  celldm(2)=   0.000000  celldm(3)=   0.000000
     celldm(4)=   0.000000  celldm(5)=   0.000000  celldm(6)=   0.000000

     crystal axes: (cart. coord. in units of alat)
               a(1) = (  -0.500000   0.000000   0.500000 )  
               a(2) = (   0.000000   0.500000   0.500000 )  
               a(3) = (  -0.500000   0.500000   0.000000 )  

     reciprocal axes: (cart. coord. in units 2 pi/alat)
               b(1) = ( -1.000000 -1.000000  1.000000 )  
               b(2) = (  1.000000  1.000000  1.000000 )  
               b(3) = ( -1.000000  1.000000 -1.000000 )  


     PseudoPot. # 1 for Si read from file:
     /home/acedemo/psudo/Si.pbe-mt_fhi.UPF
     MD5 check sum: 259057c2adf9952f9ced37ae3d9e311d
     Pseudo is Norm-conserving, Zval =  4.0
     Generated using FHI98PP, converted with fhi2upf.x v.5.0.2
     Using radial grid of  495 points,  3 beta functions with: 
                l(1) =   0
                l(2) =   1
                l(3) =   3

     PseudoPot. # 2 for  P read from file:
     /home/acedemo/psudo/P.pbe-mt_fhi.UPF
     MD5 check sum: 7191c457fb61afa58d0f00d0e4a443c1
     Pseudo is Norm-conserving, Zval =  5.0
     Generated using FHI98PP, converted with fhi2upf.x v.5.0.2
     Using radial grid of  499 points,  3 beta functions with: 
                l(1) =   0
                l(2) =   1
                l(3) =   3

     atomic species   valence    mass     pseudopotential
        Si             4.00    28.08550     Si( 1.00)
        P              5.00    30.97376      P( 1.00)

     24 Sym. Ops. (no inversion) found



   Cartesian axes

     site n.     atom                  positions (alat units)
         1           Si  tau(   1) = (   0.0000000   0.0000000   0.0000000  )
         2           P   tau(   2) = (   0.2500000   0.2500000   0.2500000  )

     number of k points=    72 (tetrahedron method)
                       cart. coord. in units 2pi/alat
        k(    1) = (   0.0000000   0.0000000   0.0000000), wk =   0.0011574
        k(    2) = (  -0.0833333   0.0833333  -0.0833333), wk =   0.0092593
        k(    3) = (  -0.1666667   0.1666667  -0.1666667), wk =   0.0092593
        k(    4) = (  -0.2500000   0.2500000  -0.2500000), wk =   0.0092593
        k(    5) = (  -0.3333333   0.3333333  -0.3333333), wk =   0.0092593
        k(    6) = (  -0.4166667   0.4166667  -0.4166667), wk =   0.0092593
        k(    7) = (   0.5000000  -0.5000000   0.5000000), wk =   0.0046296
        k(    8) = (   0.0000000   0.1666667   0.0000000), wk =   0.0069444
        k(    9) = (  -0.0833333   0.2500000  -0.0833333), wk =   0.0277778
        k(   10) = (  -0.1666667   0.3333333  -0.1666667), wk =   0.0277778
        k(   11) = (  -0.2500000   0.4166667  -0.2500000), wk =   0.0277778
        k(   12) = (  -0.3333333   0.5000000  -0.3333333), wk =   0.0277778
        k(   13) = (   0.5833333  -0.4166667   0.5833333), wk =   0.0277778
        k(   14) = (   0.5000000  -0.3333333   0.5000000), wk =   0.0277778
        k(   15) = (   0.4166667  -0.2500000   0.4166667), wk =   0.0277778
        k(   16) = (   0.3333333  -0.1666667   0.3333333), wk =   0.0277778
        k(   17) = (   0.2500000  -0.0833333   0.2500000), wk =   0.0277778
        k(   18) = (   0.1666667  -0.0000000   0.1666667), wk =   0.0138889
        k(   19) = (   0.0000000   0.3333333   0.0000000), wk =   0.0069444
        k(   20) = (  -0.0833333   0.4166667  -0.0833333), wk =   0.0277778
        k(   21) = (  -0.1666667   0.5000000  -0.1666667), wk =   0.0277778
        k(   22) = (  -0.2500000   0.5833333  -0.2500000), wk =   0.0277778
        k(   23) = (   0.6666667  -0.3333333   0.6666667), wk =   0.0277778
        k(   24) = (   0.5833333  -0.2500000   0.5833333), wk =   0.0277778
        k(   25) = (   0.5000000  -0.1666667   0.5000000), wk =   0.0277778
        k(   26) = (   0.4166667  -0.0833333   0.4166667), wk =   0.0277778
        k(   27) = (   0.3333333   0.0000000   0.3333333), wk =   0.0138889
        k(   28) = (   0.0000000   0.5000000   0.0000000), wk =   0.0069444
        k(   29) = (  -0.0833333   0.5833333  -0.0833333), wk =   0.0277778
        k(   30) = (  -0.1666667   0.6666667  -0.1666667), wk =   0.0277778
        k(   31) = (   0.7500000  -0.2500000   0.7500000), wk =   0.0277778
        k(   32) = (   0.6666667  -0.1666667   0.6666667), wk =   0.0277778
        k(   33) = (   0.5833333  -0.0833333   0.5833333), wk =   0.0277778
        k(   34) = (   0.5000000   0.0000000   0.5000000), wk =   0.0138889
        k(   35) = (   0.0000000   0.6666667   0.0000000), wk =   0.0069444
        k(   36) = (  -0.0833333   0.7500000  -0.0833333), wk =   0.0277778
        k(   37) = (   0.8333333  -0.1666667   0.8333333), wk =   0.0277778
        k(   38) = (   0.7500000  -0.0833333   0.7500000), wk =   0.0277778
        k(   39) = (   0.6666667   0.0000000   0.6666667), wk =   0.0138889
        k(   40) = (   0.0000000   0.8333333   0.0000000), wk =   0.0069444
        k(   41) = (   0.9166667  -0.0833333   0.9166667), wk =   0.0277778
        k(   42) = (   0.8333333   0.0000000   0.8333333), wk =   0.0138889
        k(   43) = (   0.0000000  -1.0000000   0.0000000), wk =   0.0034722
        k(   44) = (  -0.1666667   0.3333333   0.0000000), wk =   0.0277778
        k(   45) = (  -0.2500000   0.4166667  -0.0833333), wk =   0.0555556
        k(   46) = (  -0.3333333   0.5000000  -0.1666667), wk =   0.0555556
        k(   47) = (   0.5833333  -0.4166667   0.7500000), wk =   0.0555556
        k(   48) = (   0.5000000  -0.3333333   0.6666667), wk =   0.0277778
        k(   49) = (  -0.1666667   0.5000000   0.0000000), wk =   0.0277778
        k(   50) = (  -0.2500000   0.5833333  -0.0833333), wk =   0.0555556
        k(   51) = (   0.6666667  -0.3333333   0.8333333), wk =   0.0555556
        k(   52) = (   0.5833333  -0.2500000   0.7500000), wk =   0.0555556
        k(   53) = (   0.5000000  -0.1666667   0.6666667), wk =   0.0555556
        k(   54) = (   0.4166667  -0.0833333   0.5833333), wk =   0.0555556
        k(   55) = (   0.3333333   0.0000000   0.5000000), wk =   0.0277778
        k(   56) = (  -0.1666667   0.6666667  -0.0000000), wk =   0.0277778
        k(   57) = (   0.7500000  -0.2500000   0.9166667), wk =   0.0555556
        k(   58) = (   0.6666667  -0.1666667   0.8333333), wk =   0.0555556
        k(   59) = (   0.5833333  -0.0833333   0.7500000), wk =   0.0555556
        k(   60) = (   0.5000000   0.0000000   0.6666667), wk =   0.0277778
        k(   61) = (   0.8333333  -0.1666667   1.0000000), wk =   0.0277778
        k(   62) = (   0.7500000  -0.0833333   0.9166667), wk =   0.0555556
        k(   63) = (   0.6666667   0.0000000   0.8333333), wk =   0.0277778
        k(   64) = (  -0.1666667  -1.0000000   0.0000000), wk =   0.0138889
        k(   65) = (   0.6666667  -0.3333333   1.0000000), wk =   0.0277778
        k(   66) = (   0.5833333  -0.2500000   0.9166667), wk =   0.0555556
        k(   67) = (   0.5000000  -0.1666667   0.8333333), wk =   0.0277778
        k(   68) = (   0.6666667  -0.1666667   1.0000000), wk =   0.0277778
        k(   69) = (   0.5833333  -0.0833333   0.9166667), wk =   0.0555556
        k(   70) = (   0.5000000   0.0000000   0.8333333), wk =   0.0277778
        k(   71) = (  -0.3333333  -1.0000000   0.0000000), wk =   0.0138889
        k(   72) = (  -0.5000000  -1.0000000   0.0000000), wk =   0.0069444

     Dense  grid:    12939 G-vectors     FFT dimensions: (  36,  36,  36)

     Largest allocated arrays     est. size (Mb)     dimensions
        Kohn-Sham Wavefunctions         0.25 Mb     (    1639,   10)
        NL pseudopotentials             0.55 Mb     (    1639,   22)
        Each V/rho on FFT grid          0.71 Mb     (   46656)
        Each G-vector array             0.10 Mb     (   12939)
        G-vector shells                 0.00 Mb     (     180)
     Largest temporary arrays     est. size (Mb)     dimensions
        Auxiliary wavefunctions         1.00 Mb     (    1639,   40)
        Each subspace H/S matrix        0.02 Mb     (      40,   40)
        Each <psi_i|beta_j> matrix      0.00 Mb     (      22,   10)

     The potential is recalculated from file :
     ./out/Si.save/charge-density.dat

     Starting wfc are   32 randomized atomic wfcs

     Band Structure Calculation
     Davidson diagonalization with overlap

     ethr =  8.00E-11,  avg # of iterations = 15.8

     total cpu time spent up to now is       38.5 secs

     End of band structure calculation

          k = 0.0000 0.0000 0.0000 (  1639 PWs)   bands (ev):

    -7.1428   3.8755   3.8755   3.8755   6.6860  10.4325  10.4325  10.4325
    16.0073  16.0073

          k =-0.0833 0.0833-0.0833 (  1612 PWs)   bands (ev):

    -7.0849   3.3467   3.8335   3.8335   7.1054  10.5397  10.5397  10.5640
    15.9451  15.9451

          k =-0.1667 0.1667-0.1667 (  1591 PWs)   bands (ev):

    -6.9183   2.3158   3.7241   3.7241   7.7119  10.8179  10.8179  11.0860
    15.8544  15.8544

          k =-0.2500 0.2500-0.2500 (  1618 PWs)   bands (ev):

    -6.6666   1.2548   3.5857   3.5857   7.9913  11.1532  11.1532  12.1176
    15.9348  15.9348

          k =-0.3333 0.3333-0.3333 (  1616 PWs)   bands (ev):

    -6.3763   0.3433   3.4581   3.4581   8.0268  11.4182  11.4182  13.4790
    16.3483  16.3483

          k =-0.4167 0.4167-0.4167 (  1616 PWs)   bands (ev):

    -6.1291  -0.2898   3.3704   3.3704   7.9921  11.5580  11.5580  14.8879
    17.0882  17.0882

          k = 0.5000-0.5000 0.5000 (  1622 PWs)   bands (ev):

    -6.0287  -0.5208   3.3393   3.3393   7.9727  11.5972  11.5972  15.6951
    17.6580  17.6580

          k = 0.0000 0.1667 0.0000 (  1615 PWs)   bands (ev):

    -7.0655   3.2829   3.7657   3.7657   7.2535  10.3925  10.6774  10.6774
    15.7281  16.1261

          k =-0.0833 0.2500-0.0833 (  1599 PWs)   bands (ev):

    -6.9346   2.4933   3.6376   3.6767   7.8010  10.4846  10.9884  11.0767
    15.4988  16.2072

          k =-0.1667 0.3333-0.1667 (  1610 PWs)   bands (ev):

    -6.7097   1.4972   3.4920   3.5463   8.1779  10.7973  11.3555  11.8476
    15.4526  16.3409

          k =-0.2500 0.4167-0.2500 (  1606 PWs)   bands (ev):

    -6.4283   0.5687   3.3686   3.3878   8.2845  11.1735  11.6428  12.9208
    15.7905  16.7215

          k =-0.3333 0.5000-0.3333 (  1616 PWs)   bands (ev):

    -6.1594  -0.1434   3.2442   3.2944   8.2718  11.4438  11.7804  14.1240
    16.5633  17.3728

          k = 0.5833-0.4167 0.5833 (  1615 PWs)   bands (ev):

    -6.0023  -0.5069   3.1483   3.2828   8.2480  11.5853  11.7903  15.1960
    17.1577  17.6566

          k = 0.5000-0.3333 0.5000 (  1616 PWs)   bands (ev):

    -6.0366  -0.4303   3.1190   3.3352   8.2528  11.6369  11.7100  15.0074
    16.8576  17.4264

          k = 0.4167-0.2500 0.4167 (  1611 PWs)   bands (ev):

    -6.2432   0.0644   3.1636   3.4418   8.2772  11.5335  11.5879  13.7826
    16.0412  17.2786

          k = 0.3333-0.1667 0.3333 (  1605 PWs)   bands (ev):

    -6.5263   0.8614   3.2780   3.5812   8.2580  11.2438  11.3708  12.5477
    15.5847  16.5914

          k = 0.2500-0.0833 0.2500 (  1600 PWs)   bands (ev):

    -6.7945   1.8198   3.4481   3.7196   8.0560  10.8974  10.9772  11.5863
    15.5091  16.2091

          k = 0.1667-0.0000 0.1667 (  1592 PWs)   bands (ev):

    -6.9905   2.7567   3.6527   3.8155   7.5678  10.6251  10.6444  10.9473
    15.6882  16.0665

          k = 0.0000 0.3333 0.0000 (  1607 PWs)   bands (ev):

    -6.8412   2.1669   3.4922   3.4922   8.1881  10.3678  11.3529  11.3529
    15.1786  16.4796

          k =-0.0833 0.4167-0.0833 (  1616 PWs)   bands (ev):

    -6.6499   1.4403   3.3347   3.3351   8.5425  10.5120  11.7907  11.9141
    15.0830  16.7204

          k =-0.1667 0.5000-0.1667 (  1611 PWs)   bands (ev):

    -6.3907   0.6298   3.1412   3.2078   8.7415  10.8702  12.1510  12.5654
    15.4779  17.1010

          k =-0.2500 0.5833-0.2500 (  1610 PWs)   bands (ev):

    -6.1204  -0.0652   2.9344   3.1373   8.8053  11.3144  12.3319  13.2134
    16.4072  17.6698

          k = 0.6667-0.3333 0.6667 (  1607 PWs)   bands (ev):

    -5.9268  -0.4974   2.7659   3.1360   8.8129  11.6239  12.3385  14.0682
    16.8698  17.6645

          k = 0.5833-0.2500 0.5833 (  1602 PWs)   bands (ev):

    -5.8991  -0.5549   2.6757   3.2035   8.8158  11.7804  12.2167  14.6743
    16.2555  16.7152

          k = 0.5000-0.1667 0.5000 (  1610 PWs)   bands (ev):

    -6.0522  -0.2246   2.6896   3.3270   8.8133  11.8243  11.9741  13.8046
    15.8565  17.1709

          k = 0.4167-0.0833 0.4167 (  1613 PWs)   bands (ev):

    -6.3102   0.3897   2.8244   3.4809   8.7462  11.6074  11.6639  12.8177
    15.3827  17.4782

          k = 0.3333 0.0000 0.3333 (  1604 PWs)   bands (ev):

    -6.5795   1.1290   3.0881   3.6269   8.4993  11.1984  11.2646  12.1683
    15.3053  16.7200

          k = 0.0000 0.5000 0.0000 (  1612 PWs)   bands (ev):

    -6.4947   1.0208   3.1660   3.1660   8.7382  10.5100  12.3373  12.3373
    14.9368  17.0561

          k =-0.0833 0.5833-0.0833 (  1617 PWs)   bands (ev):

    -6.2681   0.4196   2.9794   3.0289   8.8938  10.6670  12.8291  12.8319
    15.3167  17.4516

          k =-0.1667 0.6667-0.1667 (  1620 PWs)   bands (ev):

    -6.0166  -0.1595   2.7345   2.9527   9.0671  11.0444  13.0783  13.1159
    16.3266  17.9513

          k = 0.7500-0.2500 0.7500 (  1617 PWs)   bands (ev):

    -5.8144  -0.5677   2.4926   2.9509   9.1799  11.6205  13.1590  13.3544
    16.8068  17.7065

          k = 0.6667-0.1667 0.6667 (  1607 PWs)   bands (ev):

    -5.7452  -0.6949   2.3308   3.0233   9.2340  12.0726  12.9985  13.9705
    15.6325  16.6899

          k = 0.5833-0.0833 0.5833 (  1611 PWs)   bands (ev):

    -5.8435  -0.5122   2.3092   3.1565   9.2310  12.2581  12.6477  13.8047
    15.7199  15.8559

          k = 0.5000 0.0000 0.5000 (  1604 PWs)   bands (ev):

    -6.0598  -0.1042   2.4708   3.3229   9.1016  12.1170  12.1352  13.0582
    15.4328  17.0763

          k = 0.0000 0.6667 0.0000 (  1624 PWs)   bands (ev):

    -6.0803   0.0084   2.8795   2.8795   8.8565  10.5695  13.5090  13.5090
    15.4818  17.8236

          k =-0.0833 0.7500-0.0833 (  1618 PWs)   bands (ev):

    -5.8667  -0.4266   2.7052   2.7914   8.9619  10.6394  13.8726  13.9843
    16.3300  18.2492

          k = 0.8333-0.1667 0.8333 (  1619 PWs)   bands (ev):

    -5.6888  -0.7440   2.4551   2.7805   9.1684  11.0388  13.9438  14.1219
    16.8858  17.8103

          k = 0.7500-0.0833 0.7500 (  1620 PWs)   bands (ev):

    -5.6146  -0.8569   2.2343   2.8484   9.3198  11.7673  13.9124  14.0620
    15.5870  16.8265

          k = 0.6667 0.0000 0.6667 (  1612 PWs)   bands (ev):

    -5.6762  -0.7547   2.1585   2.9827   9.3672  12.3925  13.3751  14.2715
    14.6374  16.1399

          k = 0.0000 0.8333 0.0000 (  1628 PWs)   bands (ev):

    -5.7066  -0.7307   2.6888   2.6888   8.8540  10.4241  14.7060  14.7060
    16.7085  18.6737

          k = 0.9167-0.0833 0.9167 (  1622 PWs)   bands (ev):

    -5.5864  -0.9336   2.5585   2.6636   8.9671  10.5090  14.9390  14.9971
    17.2265  18.0211

          k = 0.8333 0.0000 0.8333 (  1614 PWs)   bands (ev):

    -5.5519  -0.9678   2.3572   2.7202   9.1879  10.9888  14.6953  14.7301
    16.1576  17.2372

          k = 0.0000-1.0000 0.0000 (  1604 PWs)   bands (ev):

    -5.5461  -1.0136   2.6223   2.6223   8.8497  10.3338  15.3801  15.3801
    17.8177  18.2473

          k =-0.1667 0.3333 0.0000 (  1603 PWs)   bands (ev):

    -6.7737   1.8207   3.3739   3.6103   8.2493  10.5797  11.3127  11.6121
    15.2858  16.4246

          k =-0.2500 0.4167-0.0833 (  1607 PWs)   bands (ev):

    -6.5306   0.9864   3.1306   3.4939   8.5632  10.9006  11.7197  12.2823
    15.3286  16.8096

          k =-0.3333 0.5000-0.1667 (  1604 PWs)   bands (ev):

    -6.2517   0.2068   2.9568   3.3534   8.6705  11.3054  11.9957  13.1112
    15.7799  17.4616

          k = 0.5833-0.4167 0.7500 (  1612 PWs)   bands (ev):

    -6.0155  -0.3546   2.8560   3.2419   8.6785  11.5680  12.1094  14.1135
    16.5471  17.3667

          k = 0.5000-0.3333 0.6667 (  1602 PWs)   bands (ev):

    -5.9198  -0.5621   2.8237   3.1995   8.6726  11.6444  12.1382  14.8494
    16.3387  17.5138

          k =-0.1667 0.5000 0.0000 (  1617 PWs)   bands (ev):

    -6.4403   0.8271   3.0469   3.2584   8.8203  10.6683  12.2772  12.3770
    15.1832  17.1049

          k =-0.2500 0.5833-0.0833 (  1611 PWs)   bands (ev):

    -6.1821   0.1741   2.8026   3.1377   9.0416  11.0252  12.5404  12.8875
    15.7436  17.6803

          k = 0.6667-0.3333 0.8333 (  1617 PWs)   bands (ev):

    -5.9406  -0.3577   2.6104   3.0423   9.1549  11.4968  12.6863  13.3584
    16.5496  17.3976

          k = 0.5833-0.2500 0.7500 (  1607 PWs)   bands (ev):

    -5.8045  -0.6298   2.4820   3.0261   9.1953  11.7837  12.7661  14.0281
    15.8214  17.5048

          k = 0.5000-0.1667 0.6667 (  1605 PWs)   bands (ev):

    -5.8401  -0.5596   2.4463   3.0957   9.1994  11.8398  12.6672  14.0555
    15.7359  16.6917

          k = 0.4167-0.0833 0.5833 (  1610 PWs)   bands (ev):

    -6.0285  -0.1783   2.5342   3.2275   9.1436  11.6415  12.4671  13.2193
    15.7619  17.1435

          k = 0.3333 0.0000 0.5000 (  1606 PWs)   bands (ev):

    -6.2858   0.3871   2.7667   3.3789   8.9442  11.2169  12.1877  12.6255
    15.3888  17.5536

          k =-0.1667 0.6667-0.0000 (  1626 PWs)   bands (ev):

    -6.0449  -0.0737   2.7679   2.9202   9.0447  10.7828  13.0447  13.5047
    15.8802  17.9225

          k = 0.7500-0.2500 0.9167 (  1621 PWs)   bands (ev):

    -5.8242  -0.5039   2.5407   2.8312   9.2758  11.1425  13.0698  13.9438
    16.6856  17.4729

          k = 0.6667-0.1667 0.8333 (  1616 PWs)   bands (ev):

    -5.6804  -0.7549   2.3290   2.8275   9.4383  11.7627  13.1194  14.0555
    15.8526  17.4896

          k = 0.5833-0.0833 0.7500 (  1614 PWs)   bands (ev):

    -5.6762  -0.7577   2.2157   2.9127   9.4995  12.2306  13.1134  14.1326
    14.9318  16.6665

          k = 0.5000 0.0000 0.6667 (  1621 PWs)   bands (ev):

    -5.8125  -0.5327   2.2728   3.0606   9.4309  12.1477  12.7461  13.6938
    15.6018  16.0930

          k = 0.8333-0.1667 1.0000 (  1617 PWs)   bands (ev):

    -5.6930  -0.7389   2.5938   2.6800   9.0926  10.6955  14.0128  14.6668
    17.0117  17.6218

          k = 0.7500-0.0833 0.9167 (  1620 PWs)   bands (ev):

    -5.5814  -0.9095   2.3953   2.6638   9.3477  11.0948  13.9592  14.6933
    16.3478  17.4429

          k = 0.6667 0.0000 0.8333 (  1620 PWs)   bands (ev):

    -5.5760  -0.9019   2.2206   2.7545   9.5156  11.8273  13.7184  14.1445
    15.4683  16.9284

          k =-0.1667-1.0000 0.0000 (  1622 PWs)   bands (ev):

    -5.5440  -0.9939   2.5428   2.5864   9.1010  10.6206  14.8360  15.0759
    17.1137  17.3773

          k = 0.6667-0.3333 1.0000 (  1610 PWs)   bands (ev):

    -5.9473  -0.2813   2.5145   3.0089   9.3795  11.3586  12.5774  13.5180
    16.0795  17.2317

          k = 0.5833-0.2500 0.9167 (  1611 PWs)   bands (ev):

    -5.7532  -0.6287   2.3421   2.8815   9.5912  11.8291  12.6847  13.9766
    15.7391  16.8793

          k = 0.5000-0.1667 0.8333 (  1610 PWs)   bands (ev):

    -5.6761  -0.7608   2.2866   2.8294   9.6521  12.0027  12.9733  14.0926
    15.0449  17.4879

          k = 0.6667-0.1667 1.0000 (  1618 PWs)   bands (ev):

    -5.6578  -0.7688   2.3913   2.6783   9.6242  11.4504  12.9835  14.4597
    16.1395  17.1629

          k = 0.5833-0.0833 0.9167 (  1615 PWs)   bands (ev):

    -5.5764  -0.8847   2.2768   2.6232   9.8599  12.0362  12.9657  13.8766
    15.7800  17.3758

          k = 0.5000 0.0000 0.8333 (  1612 PWs)   bands (ev):

    -5.6140  -0.8262   2.2338   2.7132   9.8602  12.3484  12.6497  13.8934
    15.4472  17.0229

          k =-0.3333-1.0000 0.0000 (  1618 PWs)   bands (ev):

    -5.5393  -0.9529   2.3892   2.5168   9.6942  11.4256  13.7955  13.9985
    16.4752  17.2048

          k =-0.5000-1.0000 0.0000 (  1628 PWs)   bands (ev):

    -5.5371  -0.9316   2.3146   2.4829  10.0787  12.5403  12.7012  13.2346
    16.3532  17.1714

     the Fermi energy is    -3.9157 ev

     Writing output data file Si.save

     init_run     :      0.25s CPU      0.27s WALL (       1 calls)
     electrons    :     36.43s CPU     37.95s WALL (       1 calls)

     Called by init_run:
     wfcinit      :      0.00s CPU      0.00s WALL (       1 calls)
     potinit      :      0.05s CPU      0.05s WALL (       1 calls)

     Called by electrons:
     c_bands      :     36.41s CPU     37.93s WALL (       1 calls)
     v_of_rho     :      0.04s CPU      0.04s WALL (       1 calls)

     Called by c_bands:
     init_us_2    :      0.12s CPU      0.12s WALL (      72 calls)
     cegterg      :     28.41s CPU     29.64s WALL (      73 calls)

     Called by *egterg:
     h_psi        :     30.47s CPU     31.75s WALL (    1281 calls)
     g_psi        :      0.07s CPU      0.08s WALL (    1136 calls)
     cdiaghg      :      0.58s CPU      0.60s WALL (    1208 calls)

     Called by h_psi:
     add_vuspsi   :      0.86s CPU      0.90s WALL (    1281 calls)

     General routines
     calbec       :      0.96s CPU      1.00s WALL (    1281 calls)
     fft          :      0.02s CPU      0.03s WALL (      10 calls)
     fftw         :     27.10s CPU     28.23s WALL (   22292 calls)
     davcio       :      0.00s CPU      0.00s WALL (      72 calls)

     Parallel routines
     fft_scatter  :      0.67s CPU      0.68s WALL (   22302 calls)

     PWSCF        :    38.44s CPU        39.99s WALL


   This run was terminated on:   2: 4:44  16Feb2023            

=------------------------------------------------------------------------------=
   JOB DONE.
=------------------------------------------------------------------------------=
