
     Program PWSCF v.5.1 starts on 16Feb2023 at  2: 3:28 

     This program is part of the open-source Quantum ESPRESSO suite
     for quantum simulation of materials; please cite
         "P. Giannozzi et al., J. Phys.:Condens. Matter 21 395502 (2009);
          URL http://www.quantum-espresso.org", 
     in publications or presentations arising from this work. More details at
     http://www.quantum-espresso.org/quote

     Parallel version (MPI), running on     1 processors
     Waiting for input...
     Reading input from standard input

     Current dimensions of program PWSCF are:
     Max number of different atomic species (ntypx) = 10
     Max number of k-points (npk) =  40000
     Max angular momentum in pseudopotentials (lmaxx) =  3
               file Si.pbe-mt_fhi.UPF: wavefunction(s)  4f renormalized
               file P.pbe-mt_fhi.UPF: wavefunction(s)  4f renormalized

     Subspace diagonalization in iterative solution of the eigenvalue problem:
     a serial algorithm will be used


     G-vector sticks info
     --------------------
     sticks:   dense  smooth     PW     G-vecs:    dense   smooth      PW
     Sum         733     733    211                12939    12939    2109



     bravais-lattice index     =            2
     lattice parameter (alat)  =      10.2623  a.u.
     unit-cell volume          =     270.1967 (a.u.)^3
     number of atoms/cell      =            2
     number of atomic types    =            2
     number of electrons       =         2.00
     number of Kohn-Sham states=           10
     kinetic-energy cutoff     =      50.0000  Ry
     charge density cutoff     =     200.0000  Ry
     convergence threshold     =      1.6E-09
     mixing beta               =       0.3000
     number of iterations used =            8  plain     mixing
     Exchange-correlation      = PBE ( 1  4  3  4 0)

     celldm(1)=  10.262347  celldm(2)=   0.000000  celldm(3)=   0.000000
     celldm(4)=   0.000000  celldm(5)=   0.000000  celldm(6)=   0.000000

     crystal axes: (cart. coord. in units of alat)
               a(1) = (  -0.500000   0.000000   0.500000 )  
               a(2) = (   0.000000   0.500000   0.500000 )  
               a(3) = (  -0.500000   0.500000   0.000000 )  

     reciprocal axes: (cart. coord. in units 2 pi/alat)
               b(1) = ( -1.000000 -1.000000  1.000000 )  
               b(2) = (  1.000000  1.000000  1.000000 )  
               b(3) = ( -1.000000  1.000000 -1.000000 )  


     PseudoPot. # 1 for Si read from file:
     /home/acedemo/psudo/Si.pbe-mt_fhi.UPF
     MD5 check sum: 259057c2adf9952f9ced37ae3d9e311d
     Pseudo is Norm-conserving, Zval =  4.0
     Generated using FHI98PP, converted with fhi2upf.x v.5.0.2
     Using radial grid of  495 points,  3 beta functions with: 
                l(1) =   0
                l(2) =   1
                l(3) =   3

     PseudoPot. # 2 for  P read from file:
     /home/acedemo/psudo/P.pbe-mt_fhi.UPF
     MD5 check sum: 7191c457fb61afa58d0f00d0e4a443c1
     Pseudo is Norm-conserving, Zval =  5.0
     Generated using FHI98PP, converted with fhi2upf.x v.5.0.2
     Using radial grid of  499 points,  3 beta functions with: 
                l(1) =   0
                l(2) =   1
                l(3) =   3

     atomic species   valence    mass     pseudopotential
        Si             4.00    28.08550     Si( 1.00)
        P              5.00    30.97376      P( 1.00)

     24 Sym. Ops. (no inversion) found



   Cartesian axes

     site n.     atom                  positions (alat units)
         1           Si  tau(   1) = (   0.0000000   0.0000000   0.0000000  )
         2           P   tau(   2) = (   0.2500000   0.2500000   0.2500000  )

     number of k points=    10  Marzari-Vanderbilt smearing, width (Ry)=  0.0500
                       cart. coord. in units 2pi/alat
        k(    1) = (   0.0000000   0.0000000   0.0000000), wk =   0.0160000
        k(    2) = (  -0.2000000   0.2000000  -0.2000000), wk =   0.1280000
        k(    3) = (  -0.4000000   0.4000000  -0.4000000), wk =   0.1280000
        k(    4) = (   0.0000000   0.4000000   0.0000000), wk =   0.0960000
        k(    5) = (  -0.2000000   0.6000000  -0.2000000), wk =   0.3840000
        k(    6) = (   0.6000000  -0.2000000   0.6000000), wk =   0.3840000
        k(    7) = (   0.4000000   0.0000000   0.4000000), wk =   0.1920000
        k(    8) = (   0.0000000   0.8000000   0.0000000), wk =   0.0960000
        k(    9) = (   0.8000000   0.0000000   0.8000000), wk =   0.1920000
        k(   10) = (   0.6000000  -0.2000000   1.0000000), wk =   0.3840000

     Dense  grid:    12939 G-vectors     FFT dimensions: (  36,  36,  36)

     Largest allocated arrays     est. size (Mb)     dimensions
        Kohn-Sham Wavefunctions         0.25 Mb     (    1639,   10)
        NL pseudopotentials             0.55 Mb     (    1639,   22)
        Each V/rho on FFT grid          0.71 Mb     (   46656)
        Each G-vector array             0.10 Mb     (   12939)
        G-vector shells                 0.00 Mb     (     180)
     Largest temporary arrays     est. size (Mb)     dimensions
        Auxiliary wavefunctions         1.00 Mb     (    1639,   40)
        Each subspace H/S matrix        0.02 Mb     (      40,   40)
        Each <psi_i|beta_j> matrix      0.00 Mb     (      22,   10)
        Arrays for rho mixing           5.70 Mb     (   46656,    8)

     Initial potential from superposition of free atoms

     starting charge    8.99918, renormalised to    2.00000
     Starting wfc are   32 randomized atomic wfcs

     total cpu time spent up to now is        1.5 secs

     per-process dynamical memory:    16.9 Mb

     Self-consistent Calculation

     iteration #  1     ecut=    50.00 Ry     beta=0.30
     Davidson diagonalization with overlap
     ethr =  1.00E-02,  avg # of iterations =  2.0

     total cpu time spent up to now is        3.1 secs

     total energy              =     -22.39423402 Ry
     Harris-Foulkes estimate   =     -22.41692585 Ry
     estimated scf accuracy    <       0.16513525 Ry

     iteration #  2     ecut=    50.00 Ry     beta=0.30
     Davidson diagonalization with overlap
     ethr =  8.26E-03,  avg # of iterations =  1.0

     total cpu time spent up to now is        4.2 secs

     total energy              =     -22.37338929 Ry
     Harris-Foulkes estimate   =     -22.39503227 Ry
     estimated scf accuracy    <       0.07319765 Ry

     iteration #  3     ecut=    50.00 Ry     beta=0.30
     Davidson diagonalization with overlap
     ethr =  3.66E-03,  avg # of iterations =  1.0

     total cpu time spent up to now is        5.3 secs

     total energy              =     -22.37683271 Ry
     Harris-Foulkes estimate   =     -22.37667143 Ry
     estimated scf accuracy    <       0.00015499 Ry

     iteration #  4     ecut=    50.00 Ry     beta=0.30
     Davidson diagonalization with overlap
     ethr =  7.75E-06,  avg # of iterations =  3.5

     total cpu time spent up to now is        7.2 secs

     total energy              =     -22.37690371 Ry
     Harris-Foulkes estimate   =     -22.37691949 Ry
     estimated scf accuracy    <       0.00012222 Ry

     iteration #  5     ecut=    50.00 Ry     beta=0.30
     Davidson diagonalization with overlap
     ethr =  6.11E-06,  avg # of iterations =  1.0

     total cpu time spent up to now is        8.2 secs

     total energy              =     -22.37691200 Ry
     Harris-Foulkes estimate   =     -22.37691146 Ry
     estimated scf accuracy    <       0.00000069 Ry

     iteration #  6     ecut=    50.00 Ry     beta=0.30
     Davidson diagonalization with overlap
     ethr =  3.47E-08,  avg # of iterations =  2.1

     total cpu time spent up to now is        9.1 secs

     total energy              =     -22.37691307 Ry
     Harris-Foulkes estimate   =     -22.37691248 Ry
     estimated scf accuracy    <       0.00000013 Ry

     iteration #  7     ecut=    50.00 Ry     beta=0.30
     Davidson diagonalization with overlap
     ethr =  6.57E-09,  avg # of iterations =  2.0

     total cpu time spent up to now is       10.0 secs

     total energy              =     -22.37691325 Ry
     Harris-Foulkes estimate   =     -22.37691324 Ry
     estimated scf accuracy    <       0.00000001 Ry

     iteration #  8     ecut=    50.00 Ry     beta=0.30
     Davidson diagonalization with overlap
     ethr =  5.82E-10,  avg # of iterations =  2.0

     total cpu time spent up to now is       10.8 secs

     End of self-consistent calculation

          k = 0.0000 0.0000 0.0000 (  1639 PWs)   bands (ev):

    -7.1428   3.8757   3.8757   3.8757   6.6855  10.4323  10.4323  10.4323
    16.0073  16.0073

          k =-0.2000 0.2000-0.2000 (  1606 PWs)   bands (ev):

    -6.8259   1.8823   3.6700   3.6700   7.8655  10.9527  10.9527  11.4420
    15.8547  15.8547

          k =-0.4000 0.4000-0.4000 (  1616 PWs)   bands (ev):

    -6.1700  -0.1918   3.3839   3.3839   7.9991  11.5391  11.5391  14.6200
    16.9245  16.9245

          k = 0.0000 0.4000 0.0000 (  1607 PWs)   bands (ev):

    -6.7151   1.7005   3.3622   3.3622   8.4751  10.4061  11.7164  11.7164
    15.0108  16.6845

          k =-0.2000 0.6000-0.2000 (  1619 PWs)   bands (ev):

    -6.1369   0.0397   2.8766   3.0726   8.9490  11.1403  12.5987  12.9298
    16.1506  17.6803

          k = 0.6000-0.2000 0.6000 (  1596 PWs)   bands (ev):

    -5.8503  -0.5814   2.5033   3.1559   9.0220  11.9196  12.4584  14.4181
    15.8856  16.4929

          k = 0.4000 0.0000 0.4000 (  1610 PWs)   bands (ev):

    -6.3721   0.5711   2.8275   3.5164   8.7706  11.5311  11.6024  12.5676
    15.2826  17.3430

          k = 0.0000 0.8000 0.0000 (  1624 PWs)   bands (ev):

    -5.7703  -0.6132   2.7177   2.7177   8.8556  10.4566  14.4789  14.4789
    16.4315  18.5095

          k = 0.8000 0.0000 0.8000 (  1622 PWs)   bands (ev):

    -5.5609  -0.9448   2.2850   2.7616   9.2594  11.2844  14.4484  14.5615
    15.7610  16.9993

          k = 0.6000-0.2000 1.0000 (  1616 PWs)   bands (ev):

    -5.6824  -0.7248   2.3215   2.7517   9.7428  11.8262  12.6297  14.2526
    15.7456  16.9524

     the Fermi energy is    -5.1745 ev

!    total energy              =     -22.37691328 Ry
     Harris-Foulkes estimate   =     -22.37691327 Ry
     estimated scf accuracy    <          1.3E-09 Ry

     The total energy is the sum of the following terms:

     one-electron contribution =      -0.26667936 Ry
     hartree contribution      =       0.34500669 Ry
     xc contribution           =      -1.02043198 Ry
     ewald contribution        =     -21.44312514 Ry
     smearing contrib. (-TS)   =       0.00831651 Ry

     convergence has been achieved in   8 iterations

     Forces acting on atoms (Ry/au):

     atom    1 type  1   force =    -0.00000000    0.00000000   -0.00000000
     atom    2 type  2   force =     0.00000000    0.00000000    0.00000000

     Total force =     0.000000     Total SCF correction =     0.000000


     entering subroutine stress ...

          total   stress  (Ry/bohr**3)                   (kbar)     P=-2841.79
  -0.01931807  -0.00000000  -0.00000000      -2841.79     -0.00     -0.00
  -0.00000000  -0.01931807   0.00000000         -0.00  -2841.79      0.00
  -0.00000000   0.00000000  -0.01931807         -0.00      0.00  -2841.79


     Writing output data file Si.save

     init_run     :      1.36s CPU      1.45s WALL (       1 calls)
     electrons    :      8.37s CPU      9.28s WALL (       1 calls)
     forces       :      0.10s CPU      0.10s WALL (       1 calls)
     stress       :      0.78s CPU      0.88s WALL (       1 calls)

     Called by init_run:
     wfcinit      :      1.11s CPU      1.18s WALL (       1 calls)
     potinit      :      0.05s CPU      0.05s WALL (       1 calls)

     Called by electrons:
     c_bands      :      6.67s CPU      7.40s WALL (       8 calls)
     sum_band     :      1.28s CPU      1.44s WALL (       8 calls)
     v_of_rho     :      0.43s CPU      0.44s WALL (       9 calls)
     mix_rho      :      0.03s CPU      0.03s WALL (       8 calls)

     Called by c_bands:
     init_us_2    :      0.34s CPU      0.38s WALL (     190 calls)
     cegterg      :      6.42s CPU      7.13s WALL (      80 calls)

     Called by *egterg:
     h_psi        :      6.75s CPU      7.45s WALL (     236 calls)
     g_psi        :      0.01s CPU      0.01s WALL (     146 calls)
     cdiaghg      :      0.07s CPU      0.08s WALL (     226 calls)

     Called by h_psi:
     add_vuspsi   :      0.19s CPU      0.20s WALL (     236 calls)

     General routines
     calbec       :      0.24s CPU      0.26s WALL (     256 calls)
     fft          :      0.17s CPU      0.18s WALL (     106 calls)
     fftw         :      6.98s CPU      7.77s WALL (    5182 calls)
     davcio       :      0.00s CPU      0.00s WALL (      10 calls)

     Parallel routines
     fft_scatter  :      0.19s CPU      0.21s WALL (    5288 calls)

     PWSCF        :    10.75s CPU        11.85s WALL


   This run was terminated on:   2: 3:40  16Feb2023            

=------------------------------------------------------------------------------=
   JOB DONE.
=------------------------------------------------------------------------------=
