
     Program PWSCF v.5.1 starts on  1Mar2023 at 16: 4: 5 

     This program is part of the open-source Quantum ESPRESSO suite
     for quantum simulation of materials; please cite
         "P. Giannozzi et al., J. Phys.:Condens. Matter 21 395502 (2009);
          URL http://www.quantum-espresso.org", 
     in publications or presentations arising from this work. More details at
     http://www.quantum-espresso.org/quote

     Parallel version (MPI), running on     1 processors
     Waiting for input...
     Reading input from standard input
Warning: card   P     0.0000000000D0   0.5000000000D0   0.5000000000D0 ignored
Warning: card   SI    0.2500000000D0   0.7500000000D0   0.7500000000D0 ignored
Warning: card   SI   -0.5000000000D0   0.0000000000D0   0.5000000000D0 ignored
Warning: card   SI   -0.2500000000D0   0.2500000000D0   0.7500000000D0 ignored
Warning: card   SI   -0.5000000000D0   0.5000000000D0   0.10000000000D0 ignored
Warning: card   SI   -0.2500000000D0   0.7500000000D0   1.25000000000D0 ignored

     Current dimensions of program PWSCF are:
     Max number of different atomic species (ntypx) = 10
     Max number of k-points (npk) =  40000
     Max angular momentum in pseudopotentials (lmaxx) =  3
               file Si.pbe-mt_fhi.UPF: wavefunction(s)  4f renormalized
               file B.pbe-mt_fhi.UPF: wavefunction(s)  4f renormalized
               file P.pbe-mt_fhi.UPF: wavefunction(s)  4f renormalized

     Subspace diagonalization in iterative solution of the eigenvalue problem:
     a serial algorithm will be used


     G-vector sticks info
     --------------------
     sticks:   dense  smooth     PW     G-vecs:    dense   smooth      PW
     Sum         733     733    211                12939    12939    2109



     bravais-lattice index     =            2
     lattice parameter (alat)  =      10.2623  a.u.
     unit-cell volume          =     270.1967 (a.u.)^3
     number of atoms/cell      =            2
     number of atomic types    =            3
     number of electrons       =         8.00
     number of Kohn-Sham states=           24
     kinetic-energy cutoff     =      50.0000  Ry
     charge density cutoff     =     200.0000  Ry
     convergence threshold     =      1.6E-09
     mixing beta               =       0.3000
     number of iterations used =            8  plain     mixing
     Exchange-correlation      = PBE ( 1  4  3  4 0)

     celldm(1)=  10.262347  celldm(2)=   0.000000  celldm(3)=   0.000000
     celldm(4)=   0.000000  celldm(5)=   0.000000  celldm(6)=   0.000000

     crystal axes: (cart. coord. in units of alat)
               a(1) = (  -0.500000   0.000000   0.500000 )  
               a(2) = (   0.000000   0.500000   0.500000 )  
               a(3) = (  -0.500000   0.500000   0.000000 )  

     reciprocal axes: (cart. coord. in units 2 pi/alat)
               b(1) = ( -1.000000 -1.000000  1.000000 )  
               b(2) = (  1.000000  1.000000  1.000000 )  
               b(3) = ( -1.000000  1.000000 -1.000000 )  


     PseudoPot. # 1 for Si read from file:
     /home/acedemo/psudo/Si.pbe-mt_fhi.UPF
     MD5 check sum: 259057c2adf9952f9ced37ae3d9e311d
     Pseudo is Norm-conserving, Zval =  4.0
     Generated using FHI98PP, converted with fhi2upf.x v.5.0.2
     Using radial grid of  495 points,  3 beta functions with: 
                l(1) =   0
                l(2) =   1
                l(3) =   3

     PseudoPot. # 2 for  B read from file:
     /home/acedemo/psudo/B.pbe-mt_fhi.UPF
     MD5 check sum: 3ba04917d1d3a8de85490f79a9c37fe5
     Pseudo is Norm-conserving + core correction, Zval =  3.0
     Generated using FHI98PP, converted with fhi2upf.x v.5.0.2
     Using radial grid of  453 points,  3 beta functions with: 
                l(1) =   0
                l(2) =   1
                l(3) =   3

     PseudoPot. # 3 for  P read from file:
     /home/acedemo/psudo/P.pbe-mt_fhi.UPF
     MD5 check sum: 7191c457fb61afa58d0f00d0e4a443c1
     Pseudo is Norm-conserving, Zval =  5.0
     Generated using FHI98PP, converted with fhi2upf.x v.5.0.2
     Using radial grid of  499 points,  3 beta functions with: 
                l(1) =   0
                l(2) =   1
                l(3) =   3

     atomic species   valence    mass     pseudopotential
        Si             4.00    28.08550     Si( 1.00)
        B              3.00    10.81100      B( 1.00)
        P              5.00    30.97376      P( 1.00)

     24 Sym. Ops. (no inversion) found



   Cartesian axes

     site n.     atom                  positions (alat units)
         1           B   tau(   1) = (   0.0000000   0.0000000   0.0000000  )
         2           P   tau(   2) = (   0.2500000   0.2500000   0.2500000  )

     number of k points=    10  Marzari-Vanderbilt smearing, width (Ry)=  0.0500
                       cart. coord. in units 2pi/alat
        k(    1) = (   0.0000000   0.0000000   0.0000000), wk =   0.0160000
        k(    2) = (  -0.2000000   0.2000000  -0.2000000), wk =   0.1280000
        k(    3) = (  -0.4000000   0.4000000  -0.4000000), wk =   0.1280000
        k(    4) = (   0.0000000   0.4000000   0.0000000), wk =   0.0960000
        k(    5) = (  -0.2000000   0.6000000  -0.2000000), wk =   0.3840000
        k(    6) = (   0.6000000  -0.2000000   0.6000000), wk =   0.3840000
        k(    7) = (   0.4000000   0.0000000   0.4000000), wk =   0.1920000
        k(    8) = (   0.0000000   0.8000000   0.0000000), wk =   0.0960000
        k(    9) = (   0.8000000   0.0000000   0.8000000), wk =   0.1920000
        k(   10) = (   0.6000000  -0.2000000   1.0000000), wk =   0.3840000

     Dense  grid:    12939 G-vectors     FFT dimensions: (  36,  36,  36)

     Largest allocated arrays     est. size (Mb)     dimensions
        Kohn-Sham Wavefunctions         0.60 Mb     (    1639,   24)
        NL pseudopotentials             0.55 Mb     (    1639,   22)
        Each V/rho on FFT grid          0.71 Mb     (   46656)
        Each G-vector array             0.10 Mb     (   12939)
        G-vector shells                 0.00 Mb     (     180)
     Largest temporary arrays     est. size (Mb)     dimensions
        Auxiliary wavefunctions         2.40 Mb     (    1639,   96)
        Each subspace H/S matrix        0.14 Mb     (      96,   96)
        Each <psi_i|beta_j> matrix      0.01 Mb     (      22,   24)
        Arrays for rho mixing           5.70 Mb     (   46656,    8)

     Check: negative/imaginary core charge=   -0.000048    0.000000

     Initial potential from superposition of free atoms

     starting charge    7.99962, renormalised to    8.00000
     Starting wfc are   32 randomized atomic wfcs

     total cpu time spent up to now is        1.8 secs

     per-process dynamical memory:    21.5 Mb

     Self-consistent Calculation

     iteration #  1     ecut=    50.00 Ry     beta=0.30
     Davidson diagonalization with overlap
     ethr =  1.00E-02,  avg # of iterations =  4.7

     Threshold (ethr) on eigenvalues was too large:
     Diagonalizing with lowered threshold

     Davidson diagonalization with overlap
     ethr =  4.24E-04,  avg # of iterations =  1.0

     total cpu time spent up to now is        8.7 secs

     total energy              =     -19.84022704 Ry
     Harris-Foulkes estimate   =     -19.84455693 Ry
     estimated scf accuracy    <       0.03386501 Ry

     iteration #  2     ecut=    50.00 Ry     beta=0.30
     Davidson diagonalization with overlap
     ethr =  4.23E-04,  avg # of iterations =  1.0

     total cpu time spent up to now is       11.0 secs

     total energy              =     -19.84105897 Ry
     Harris-Foulkes estimate   =     -19.84160251 Ry
     estimated scf accuracy    <       0.01157105 Ry

     iteration #  3     ecut=    50.00 Ry     beta=0.30
     Davidson diagonalization with overlap
     ethr =  1.45E-04,  avg # of iterations =  1.0

     total cpu time spent up to now is       13.2 secs

     total energy              =     -19.84105001 Ry
     Harris-Foulkes estimate   =     -19.84114591 Ry
     estimated scf accuracy    <       0.00285573 Ry

     iteration #  4     ecut=    50.00 Ry     beta=0.30
     Davidson diagonalization with overlap
     ethr =  3.57E-05,  avg # of iterations =  1.0

     total cpu time spent up to now is       15.3 secs

     total energy              =     -19.84110803 Ry
     Harris-Foulkes estimate   =     -19.84110796 Ry
     estimated scf accuracy    <       0.00002534 Ry

     iteration #  5     ecut=    50.00 Ry     beta=0.30
     Davidson diagonalization with overlap
     ethr =  3.17E-07,  avg # of iterations =  3.3

     total cpu time spent up to now is       17.5 secs

     total energy              =     -19.84111100 Ry
     Harris-Foulkes estimate   =     -19.84111038 Ry
     estimated scf accuracy    <       0.00000049 Ry

     iteration #  6     ecut=    50.00 Ry     beta=0.30
     Davidson diagonalization with overlap
     ethr =  6.10E-09,  avg # of iterations =  2.0

     total cpu time spent up to now is       19.8 secs

     total energy              =     -19.84111114 Ry
     Harris-Foulkes estimate   =     -19.84111114 Ry
     estimated scf accuracy    <       0.00000015 Ry

     iteration #  7     ecut=    50.00 Ry     beta=0.30
     Davidson diagonalization with overlap
     ethr =  1.90E-09,  avg # of iterations =  1.0

     total cpu time spent up to now is       22.0 secs

     total energy              =     -19.84111116 Ry
     Harris-Foulkes estimate   =     -19.84111116 Ry
     estimated scf accuracy    <          4.5E-09 Ry

     iteration #  8     ecut=    50.00 Ry     beta=0.30
     Davidson diagonalization with overlap
     ethr =  5.60E-11,  avg # of iterations =  1.5

     total cpu time spent up to now is       24.5 secs

     End of self-consistent calculation

          k = 0.0000 0.0000 0.0000 (  1639 PWs)   bands (ev):

    -8.2494   3.2707   3.2707   3.2707   4.0720   6.1484   6.1484   6.1484
    12.0005  14.0552  14.0552  16.4888  16.4888  16.4888  20.5691  24.4772
    24.4772  24.4772  29.9673  29.9673  29.9673  31.3499  31.3499  35.8257

          k =-0.2000 0.2000-0.2000 (  1606 PWs)   bands (ev):

    -7.8317   0.3862   2.7865   2.7865   4.8239   6.8341   6.8341   7.8158
    13.0778  13.2402  13.2402  15.7736  18.6532  18.6532  21.4252  23.4534
    23.4534  23.9762  28.2421  28.2421  30.9284  31.2167  31.2167  36.2964

          k =-0.4000 0.4000-0.4000 (  1616 PWs)   bands (ev):

    -6.8509  -2.2401   2.2689   2.2689   4.4477   7.3921   7.3921  10.4252
    13.5597  14.1956  14.1956  15.4569  18.0766  18.0766  21.3605  24.6253
    24.6253  26.2256  27.7326  27.7326  30.1380  31.1243  31.1243  33.7047

          k = 0.0000 0.4000 0.0000 (  1607 PWs)   bands (ev):

    -7.6879   0.4036   2.0951   2.0951   5.4697   6.3007   7.9196   7.9196
    11.6730  13.6657  14.7476  17.6698  17.6698  18.4290  22.0863  22.1436
    22.1436  25.7033  26.8982  29.3366  29.8559  29.8559  32.4768  36.0982

          k =-0.2000 0.6000-0.2000 (  1619 PWs)   bands (ev):

    -6.8449  -1.6576   1.1295   1.6250   5.6727   6.9474   8.7224   8.8923
    12.6460  14.2263  15.3477  17.4070  17.9841  20.0501  20.6584  22.0430
    24.4216  25.5933  26.2528  28.3448  29.8954  30.1798  30.5465  33.5883

          k = 0.6000-0.2000 0.6000 (  1596 PWs)   bands (ev):

    -6.3363  -2.5567   0.4652   1.8209   5.6687   7.8463   8.3721  10.0340
    12.3123  13.8394  15.0993  16.9529  18.8007  19.5181  21.5903  23.9909
    24.6061  25.3472  26.7410  27.2894  30.5237  30.6561  31.1357  31.5967

          k = 0.4000 0.0000 0.4000 (  1610 PWs)   bands (ev):

    -7.1946  -1.0163   0.9430   2.5156   5.7398   7.3526   7.6743   8.6515
    12.3812  13.7159  14.2522  17.3413  18.9534  19.4084  20.3834  21.8524
    25.4840  26.1714  26.2076  27.3788  30.3013  30.4684  31.2513  33.5832

          k = 0.0000 0.8000 0.0000 (  1624 PWs)   bands (ev):

    -6.2732  -2.3696   1.0315   1.0315   4.9797   5.7400  10.4007  10.4007
    12.7061  15.0348  16.5235  17.8639  17.8639  21.4043  21.8857  21.8857
    22.3214  23.0076  26.5404  28.1730  28.1811  28.1811  31.8372  33.4131

          k = 0.8000 0.0000 0.8000 (  1622 PWs)   bands (ev):

    -5.8467  -2.8642   0.0789   1.1209   5.3960   7.0288  10.1509  10.1857
    12.3256  14.8812  15.0330  18.7588  19.1136  20.8010  22.2875  22.3136
    24.1072  24.4319  25.2619  26.5848  28.0443  28.7204  30.4092  32.4880

          k = 0.6000-0.2000 1.0000 (  1616 PWs)   bands (ev):

    -6.0768  -2.5379   0.1311   0.9324   7.0378   7.1104   8.4156   9.8717
    12.4849  13.7303  15.8548  18.3612  19.3955  20.5866  20.7787  23.2470
    24.1019  24.9004  26.3865  26.6647  28.5688  29.1644  30.6975  32.5088

     the Fermi energy is     3.2343 ev

!    total energy              =     -19.84111116 Ry
     Harris-Foulkes estimate   =     -19.84111116 Ry
     estimated scf accuracy    <          4.1E-10 Ry

     The total energy is the sum of the following terms:

     one-electron contribution =       2.02432121 Ry
     hartree contribution      =       1.87829183 Ry
     xc contribution           =      -6.21608152 Ry
     ewald contribution        =     -17.53433161 Ry
     smearing contrib. (-TS)   =       0.00668893 Ry

     convergence has been achieved in   8 iterations

     Forces acting on atoms (Ry/au):

     atom    1 type  2   force =     0.00000000    0.00000000    0.00000000
     atom    2 type  3   force =    -0.00000000   -0.00000000    0.00000000

     Total force =     0.000000     Total SCF correction =     0.000000


     entering subroutine stress ...

          total   stress  (Ry/bohr**3)                   (kbar)     P= -288.56
  -0.00196159  -0.00000000   0.00000000       -288.56     -0.00      0.00
  -0.00000000  -0.00196159   0.00000000         -0.00   -288.56      0.00
  -0.00000000   0.00000000  -0.00196159         -0.00      0.00   -288.56


     Writing output data file Si.save

     init_run     :      1.58s CPU      1.68s WALL (       1 calls)
     electrons    :     22.03s CPU     22.63s WALL (       1 calls)
     forces       :      0.21s CPU      0.21s WALL (       1 calls)
     stress       :      0.99s CPU      1.04s WALL (       1 calls)

     Called by init_run:
     wfcinit      :      1.20s CPU      1.29s WALL (       1 calls)
     potinit      :      0.06s CPU      0.06s WALL (       1 calls)

     Called by electrons:
     c_bands      :     18.28s CPU     18.84s WALL (       9 calls)
     sum_band     :      3.31s CPU      3.35s WALL (       9 calls)
     v_of_rho     :      0.45s CPU      0.45s WALL (       9 calls)
     mix_rho      :      0.02s CPU      0.02s WALL (       9 calls)

     Called by c_bands:
     init_us_2    :      0.39s CPU      0.40s WALL (     210 calls)
     cegterg      :     17.97s CPU     18.52s WALL (      90 calls)

     Called by *egterg:
     h_psi        :     15.57s CPU     16.07s WALL (     265 calls)
     g_psi        :      0.03s CPU      0.03s WALL (     165 calls)
     cdiaghg      :      0.47s CPU      0.48s WALL (     245 calls)

     Called by h_psi:
     add_vuspsi   :      0.45s CPU      0.47s WALL (     265 calls)

     General routines
     calbec       :      0.55s CPU      0.56s WALL (     285 calls)
     fft          :      0.20s CPU      0.21s WALL (     125 calls)
     fftw         :     16.59s CPU     17.07s WALL (   12266 calls)
     davcio       :      0.00s CPU      0.01s WALL (      10 calls)

     Parallel routines
     fft_scatter  :      0.44s CPU      0.44s WALL (   12391 calls)

     PWSCF        :    25.02s CPU        25.83s WALL


   This run was terminated on:  16: 4:31   1Mar2023            

=------------------------------------------------------------------------------=
   JOB DONE.
=------------------------------------------------------------------------------=
