
     Program PWSCF v.5.1 starts on 12Feb2023 at 16:53:51 

     This program is part of the open-source Quantum ESPRESSO suite
     for quantum simulation of materials; please cite
         "P. Giannozzi et al., J. Phys.:Condens. Matter 21 395502 (2009);
          URL http://www.quantum-espresso.org", 
     in publications or presentations arising from this work. More details at
     http://www.quantum-espresso.org/quote

     Parallel version (MPI), running on     1 processors
     Waiting for input...
     Reading input from standard input
Warning: card   SI   0.0000000000D0   0.5000000000D0   0.5000000000D0 ignored
Warning: card   SI   0.2500000000D0   0.7500000000D0   0.7500000000D0 ignored
Warning: card   SI   -0.5000000000D0   0.0000000000D0   0.5000000000D0 ignored
Warning: card   SI   -0.2500000000D0   0.2500000000D0   0.7500000000D0 ignored
Warning: card   SI   -0.5000000000D0   0.5000000000D0   0.10000000000D0 ignored
Warning: card   SI   -0.2500000000D0   0.7500000000D0   1.25000000000D0 ignored

     Current dimensions of program PWSCF are:
     Max number of different atomic species (ntypx) = 10
     Max number of k-points (npk) =  40000
     Max angular momentum in pseudopotentials (lmaxx) =  3

     Atomic positions and unit cell read from directory:
     ./out/Si.save/

               file Si.pbe-mt_fhi.UPF: wavefunction(s)  4f renormalized
               file B.pbe-mt_fhi.UPF: wavefunction(s)  4f renormalized

     Subspace diagonalization in iterative solution of the eigenvalue problem:
     a serial algorithm will be used


     G-vector sticks info
     --------------------
     sticks:   dense  smooth     PW     G-vecs:    dense   smooth      PW
     Sum         733     733    211                12939    12939    2109



     bravais-lattice index     =            2
     lattice parameter (alat)  =      10.2623  a.u.
     unit-cell volume          =     270.1967 (a.u.)^3
     number of atoms/cell      =            2
     number of atomic types    =            2
     number of electrons       =         6.00
     number of Kohn-Sham states=           24
     kinetic-energy cutoff     =      50.0000  Ry
     charge density cutoff     =     200.0000  Ry
     Exchange-correlation      = PBE ( 1  4  3  4 0)

     celldm(1)=  10.262347  celldm(2)=   0.000000  celldm(3)=   0.000000
     celldm(4)=   0.000000  celldm(5)=   0.000000  celldm(6)=   0.000000

     crystal axes: (cart. coord. in units of alat)
               a(1) = (  -0.500000   0.000000   0.500000 )  
               a(2) = (   0.000000   0.500000   0.500000 )  
               a(3) = (  -0.500000   0.500000   0.000000 )  

     reciprocal axes: (cart. coord. in units 2 pi/alat)
               b(1) = ( -1.000000 -1.000000  1.000000 )  
               b(2) = (  1.000000  1.000000  1.000000 )  
               b(3) = ( -1.000000  1.000000 -1.000000 )  


     PseudoPot. # 1 for Si read from file:
     /home/acedemo/psudo/Si.pbe-mt_fhi.UPF
     MD5 check sum: 259057c2adf9952f9ced37ae3d9e311d
     Pseudo is Norm-conserving, Zval =  4.0
     Generated using FHI98PP, converted with fhi2upf.x v.5.0.2
     Using radial grid of  495 points,  3 beta functions with: 
                l(1) =   0
                l(2) =   1
                l(3) =   3

     PseudoPot. # 2 for  B read from file:
     /home/acedemo/psudo/B.pbe-mt_fhi.UPF
     MD5 check sum: 3ba04917d1d3a8de85490f79a9c37fe5
     Pseudo is Norm-conserving + core correction, Zval =  3.0
     Generated using FHI98PP, converted with fhi2upf.x v.5.0.2
     Using radial grid of  453 points,  3 beta functions with: 
                l(1) =   0
                l(2) =   1
                l(3) =   3

     atomic species   valence    mass     pseudopotential
        Si             4.00    28.08550     Si( 1.00)
        B              3.00    10.81100      B( 1.00)

     48 Sym. Ops., with inversion, found (24 have fractional translation)



   Cartesian axes

     site n.     atom                  positions (alat units)
         1           B   tau(   1) = (   0.0000000   0.0000000   0.0000000  )
         2           B   tau(   2) = (   0.2500000   0.2500000   0.2500000  )

     number of k points=    51  Marzari-Vanderbilt smearing, width (Ry)=  0.0500
                       cart. coord. in units 2pi/alat
        k(    1) = (   0.5000000   0.5000000   0.5000000), wk =   0.0000000
        k(    2) = (   0.4500000   0.4500000   0.4500000), wk =   0.0014779
        k(    3) = (   0.4000000   0.4000000   0.4000000), wk =   0.0029558
        k(    4) = (   0.3500000   0.3500000   0.3500000), wk =   0.0044337
        k(    5) = (   0.3000000   0.3000000   0.3000000), wk =   0.0059116
        k(    6) = (   0.2500000   0.2500000   0.2500000), wk =   0.0073895
        k(    7) = (   0.2000000   0.2000000   0.2000000), wk =   0.0088674
        k(    8) = (   0.1500000   0.1500000   0.1500000), wk =   0.0103453
        k(    9) = (   0.1000000   0.1000000   0.1000000), wk =   0.0118232
        k(   10) = (   0.0500000   0.0500000   0.0500000), wk =   0.0133011
        k(   11) = (   0.0000000   0.0000000   0.0000000), wk =   0.0147790
        k(   12) = (   0.0000000   0.1000000   0.0000000), wk =   0.0168691
        k(   13) = (   0.0000000   0.2000000   0.0000000), wk =   0.0189591
        k(   14) = (   0.0000000   0.3000000   0.0000000), wk =   0.0210492
        k(   15) = (   0.0000000   0.4000000   0.0000000), wk =   0.0231392
        k(   16) = (   0.0000000   0.5000000   0.0000000), wk =   0.0252293
        k(   17) = (   0.0000000   0.6000000   0.0000000), wk =   0.0273194
        k(   18) = (   0.0000000   0.7000000   0.0000000), wk =   0.0294094
        k(   19) = (   0.0000000   0.8000000   0.0000000), wk =   0.0314995
        k(   20) = (   0.0000000   0.9000000   0.0000000), wk =   0.0335896
        k(   21) = (   0.0000000   1.0000000   0.0000000), wk =   0.0356796
        k(   22) = (   0.0000000   0.9750000   0.0750000), wk =   0.0370621
        k(   23) = (   0.0000000   0.9500000   0.1500000), wk =   0.0384445
        k(   24) = (  -0.0000000   0.9250000   0.2250000), wk =   0.0398270
        k(   25) = (  -0.0000000   0.9000000   0.3000000), wk =   0.0412094
        k(   26) = (   0.0000000   0.8750000   0.3750000), wk =   0.0425919
        k(   27) = (   0.0000000   0.8500000   0.4500000), wk =   0.0439743
        k(   28) = (   0.0000000   0.8250000   0.5250000), wk =   0.0453568
        k(   29) = (  -0.0000000   0.8000000   0.6000000), wk =   0.0467392
        k(   30) = (  -0.0000000   0.7750000   0.6750000), wk =   0.0481217
        k(   31) = (   0.0000000   0.7500000   0.7500000), wk =   0.0495041
        k(   32) = (   0.0000000   0.7250000   0.7750000), wk =   0.0500266
        k(   33) = (   0.0000000   0.7000000   0.8000000), wk =   0.0505491
        k(   34) = (   0.0000000   0.6750000   0.8250000), wk =   0.0510717
        k(   35) = (   0.0000000   0.6500000   0.8500000), wk =   0.0515942
        k(   36) = (   0.0000000   0.6250000   0.8750000), wk =   0.0521167
        k(   37) = (   0.0000000   0.6000000   0.9000000), wk =   0.0526392
        k(   38) = (   0.0000000   0.5750000   0.9250000), wk =   0.0531617
        k(   39) = (   0.0000000   0.5500000   0.9500000), wk =   0.0536842
        k(   40) = (   0.0000000   0.5250000   0.9750000), wk =   0.0542067
        k(   41) = (   0.0000000   0.5000000   1.0000000), wk =   0.0547293
        k(   42) = (   0.0000000   0.4500000   0.9000000), wk =   0.0574942
        k(   43) = (  -0.0000000   0.4000000   0.8000000), wk =   0.0602591
        k(   44) = (  -0.0000000   0.3500000   0.7000000), wk =   0.0630239
        k(   45) = (  -0.0000000   0.3000000   0.6000000), wk =   0.0657888
        k(   46) = (   0.0000000   0.2500000   0.5000000), wk =   0.0685537
        k(   47) = (   0.0000000   0.2000000   0.4000000), wk =   0.0713186
        k(   48) = (   0.0000000   0.1500000   0.3000000), wk =   0.0740835
        k(   49) = (  -0.0000000   0.1000000   0.2000000), wk =   0.0768484
        k(   50) = (  -0.0000000   0.0500000   0.1000000), wk =   0.0796133
        k(   51) = (   0.0000000   0.0000000   0.0000000), wk =   0.0823782

     Dense  grid:    12939 G-vectors     FFT dimensions: (  36,  36,  36)

     Largest allocated arrays     est. size (Mb)     dimensions
        Kohn-Sham Wavefunctions         0.60 Mb     (    1639,   24)
        NL pseudopotentials             0.55 Mb     (    1639,   22)
        Each V/rho on FFT grid          0.71 Mb     (   46656)
        Each G-vector array             0.10 Mb     (   12939)
        G-vector shells                 0.00 Mb     (     180)
     Largest temporary arrays     est. size (Mb)     dimensions
        Auxiliary wavefunctions         2.40 Mb     (    1639,   96)
        Each subspace H/S matrix        0.14 Mb     (      96,   96)
        Each <psi_i|beta_j> matrix      0.01 Mb     (      22,   24)

     Check: negative/imaginary core charge=   -0.000071    0.000000

     The potential is recalculated from file :
     ./out/Si.save/charge-density.dat

     Starting wfc are   32 randomized atomic wfcs

     Band Structure Calculation
     Davidson diagonalization with overlap

     ethr =  2.67E-11,  avg # of iterations = 15.4

     total cpu time spent up to now is       67.1 secs

     End of band structure calculation

          k = 0.5000 0.5000 0.5000 (  1622 PWs)   bands (ev):

    -6.0583  -3.6760   0.9670   0.9670   3.2681   5.8836   5.8836   8.3857
    12.0421  12.6995  14.3425  14.3425  18.3517  18.3517  22.2683  25.6734
    25.7313  25.7313  27.6346  27.6346  29.1184  29.1184  31.1571  32.1336

          k = 0.4500 0.4500 0.4500 (  1610 PWs)   bands (ev):

    -6.1672  -3.5180   0.9844   0.9844   3.2797   5.8687   5.8687   8.2926
    11.9253  12.8919  14.2435  14.2435  18.5316  18.5316  22.0146  25.2176
    25.2176  25.9409  27.6618  27.6618  29.5658  29.5658  30.0675  33.3117

          k = 0.4000 0.4000 0.4000 (  1616 PWs)   bands (ev):

    -6.4291  -3.1097   1.0361   1.0361   3.3139   5.8218   5.8218   8.0273
    11.7589  13.2572  14.0112  14.0112  19.0023  19.0023  21.4965  24.1367
    24.1367  26.2557  27.7394  27.7394  29.0852  30.4369  30.4369  34.7131

          k = 0.3500 0.3500 0.3500 (  1610 PWs)   bands (ev):

    -6.7453  -2.5523   1.1207   1.1207   3.3686   5.7373   5.7373   7.6263
    11.6373  13.6282  13.7639  13.7639  19.6305  19.6305  21.0307  22.9096
    22.9096  25.6662  27.8953  27.8953  29.2720  31.2682  31.2682  35.4131

          k = 0.3000 0.3000 0.3000 (  1615 PWs)   bands (ev):

    -7.0590  -1.9066   1.2354   1.2354   3.4394   5.6101   5.6101   7.1334
    11.5315  13.5912  13.5912  13.9516  20.2954  20.2954  20.7797  21.6763
    21.6763  24.4713  28.1748  28.1748  30.2080  31.9190  31.9190  35.2938

          k = 0.2500 0.2500 0.2500 (  1618 PWs)   bands (ev):

    -7.3433  -1.2057   1.3755   1.3755   3.5180   5.4401   5.4401   6.5869
    11.3879  13.5444  13.5444  14.2394  20.4258  20.4258  20.7946  20.9689
    20.9689  23.1916  28.6242  28.6242  31.2647  32.3828  32.3828  35.2414

          k = 0.2000 0.2000 0.2000 (  1606 PWs)   bands (ev):

    -7.5853  -0.4720   1.5332   1.5332   3.5894   5.2369   5.2369   6.0186
    11.1744  13.6463  13.6463  14.5454  19.3108  19.3108  21.0323  21.4616
    21.4616  21.9747  29.2701  29.2701  32.1207  32.6946  32.6946  35.2279

          k = 0.1500 0.1500 0.1500 (  1600 PWs)   bands (ev):

    -7.7781   0.2736   1.6960   1.6960   3.6219   5.0209   5.0209   5.4651
    10.9090  13.9005  13.9005  14.9125  18.2499  18.2499  20.8075  21.4643
    21.8429  21.8429  30.0886  30.0886  32.4322  32.9256  32.9256  35.2169

          k = 0.1000 0.1000 0.1000 (  1606 PWs)   bands (ev):

    -7.9179   1.0028   1.8445   1.8445   3.5519   4.8228   4.8228   4.9951
    10.6495  14.2971  14.2971  15.3334  17.2785  17.2785  19.8581  21.8541
    22.0949  22.0949  30.9533  30.9533  32.2160  33.2181  33.2181  35.5823

          k = 0.0500 0.0500 0.0500 (  1630 PWs)   bands (ev):

    -8.0026   1.6547   1.9524   1.9524   3.3127   4.6801   4.6801   4.7101
    10.4615  14.8073  14.8073  15.7272  16.4252  16.4252  19.1387  22.1626
    22.2347  22.2347  31.5798  31.5798  31.9070  33.7873  33.7873  35.7300

          k = 0.0000 0.0000 0.0000 (  1639 PWs)   bands (ev):

    -8.0309   1.9925   1.9925   1.9925   3.1028   4.6275   4.6275   4.6275
    10.3930  15.2113  15.2113  15.9072  15.9072  15.9072  18.8501  22.2791
    22.2791  22.2791  31.7777  31.7777  31.7777  34.3153  34.3153  35.9500

          k = 0.0000 0.1000 0.0000 (  1627 PWs)   bands (ev):

    -7.9931   1.6567   1.8790   1.8790   3.4041   4.5829   4.7670   4.7670
    10.4846  14.3182  15.2615  15.9946  15.9946  16.6138  19.2601  22.1852
    22.1852  22.1932  31.6210  31.6210  31.8009  33.0578  34.4558  35.3167

          k = 0.0000 0.2000 0.0000 (  1599 PWs)   bands (ev):

    -7.8800   1.0334   1.5984   1.5984   3.9151   4.4623   5.1248   5.1248
    10.7411  13.1863  15.4122  16.2536  16.2536  17.2799  20.3990  21.9117
    21.9117  21.9612  31.2832  31.2832  31.3144  31.8589  34.6381  34.6381

          k = 0.0000 0.3000 0.0000 (  1607 PWs)   bands (ev):

    -7.6928   0.3454   1.2481   1.2481   4.2965   4.3863   5.6009   5.6009
    11.1138  12.1930  15.6633  16.6727  16.6727  17.8439  21.4881  21.4881
    21.6492  21.9569  29.6108  30.9728  30.9728  31.9067  33.8553  33.8553

          k = 0.0000 0.4000 0.0000 (  1607 PWs)   bands (ev):

    -7.4327  -0.3637   0.8908   0.8908   4.1202   4.7337   6.1275   6.1275
    11.4302  11.5368  16.0147  17.2220  17.2220  18.4654  20.9792  20.9792
    21.3445  23.6725  27.9874  30.8030  30.8030  31.8443  32.9228  32.9228

          k = 0.0000 0.5000 0.0000 (  1612 PWs)   bands (ev):

    -7.1024  -1.0804   0.5600   0.5600   3.9627   4.9029   6.6633   6.6633
    10.9574  11.9344  16.4665  17.8149  17.8149  19.2049  20.5198  20.5198
    21.1403  25.3335  26.4538  30.8015  30.8015  31.5974  31.8376  31.8376

          k = 0.0000 0.6000 0.0000 (  1620 PWs)   bands (ev):

    -6.7048  -1.7976   0.2739   0.2739   3.8458   4.8796   7.1768   7.1768
    10.7888  12.2307  17.0184  18.1922  18.1922  20.0792  20.4212  20.4212
    21.1243  25.0141  26.5458  30.5518  30.5518  31.0188  31.0188  31.4892

          k = 0.0000 0.7000 0.0000 (  1632 PWs)   bands (ev):

    -6.2441  -2.5094   0.0431   0.0431   3.7850   4.7084   7.6374   7.6374
    10.8751  12.3666  17.6704  18.0880  18.0880  20.9983  20.9983  21.0834
    21.3586  23.6702  26.7442  29.2116  29.2116  30.4489  31.3163  31.3163

          k = 0.0000 0.8000 0.0000 (  1624 PWs)   bands (ev):

    -5.7255  -3.2088  -0.1256  -0.1256   3.7900   4.4661   8.0098   8.0098
    11.1295  12.3227  17.7660  17.7660  18.4223  21.8545  22.0265  22.0265
    22.1798  22.4236  26.1304  27.7747  27.7747  28.7140  31.7636  31.7636

          k = 0.0000 0.9000 0.0000 (  1608 PWs)   bands (ev):

    -5.1550  -3.8884  -0.2283  -0.2283   3.8660   4.2197   8.2556   8.2556
    11.4674  12.1233  17.5001  17.5001  19.2739  21.2749  22.5531  23.1737
    23.2410  23.2410  25.4465  26.3409  26.3409  27.1007  32.3041  32.3041

          k = 0.0000 1.0000 0.0000 (  1604 PWs)   bands (ev):

    -4.5400  -4.5400  -0.2628  -0.2628   4.0122   4.0122   8.3419   8.3419
    11.8189  11.8189  17.4011  17.4011  20.2248  20.2248  23.2506  23.2506
    24.1640  24.1640  25.3464  25.3464  25.7771  25.7771  32.6900  32.6900

          k = 0.0000 0.9750 0.0750 (  1618 PWs)   bands (ev):

    -4.6904  -4.3759  -0.2992  -0.2946   4.0480   4.1342   8.2940   8.3029
    11.7157  11.8721  17.3030  17.3231  20.1384  20.6176  23.0126  23.1796
    24.1754  24.1977  25.0496  25.0631  26.1525  26.5587  32.3445  32.4128

          k = 0.0000 0.9500 0.1500 (  1622 PWs)   bands (ev):

    -4.8203  -4.2086  -0.4042  -0.3695   4.2375   4.3910   8.1331   8.2006
    11.6071  11.8478  17.0399  17.1654  20.3340  21.1839  22.7016  22.7092
    24.1784  24.2979  24.7874  25.1813  26.8443  27.6118  31.5473  31.8730

          k =-0.0000 0.9250 0.2250 (  1622 PWs)   bands (ev):

    -4.9253  -4.0523  -0.5572  -0.4482   4.5534   4.7404   7.8473   8.0521
    11.5399  11.7388  16.6944  17.0245  20.6917  21.6332  22.1216  22.5479
    24.2296  24.4684  24.6845  25.5728  27.5834  28.5973  30.6727  31.4057

          k =-0.0000 0.9000 0.3000 (  1623 PWs)   bands (ev):

    -5.0033  -3.9242  -0.7302  -0.4915   4.9585   5.1247   7.4625   7.8695
    11.5448  11.5564  16.3176  16.9525  21.1080  21.5988  21.6306  22.7763
    24.3378  24.5934  24.9092  26.0200  28.0869  29.1464  30.1083  31.2439

          k = 0.0000 0.8750 0.3750 (  1614 PWs)   bands (ev):

    -5.0533  -3.8400  -0.8984  -0.4708   5.4130   5.4440   7.0755   7.6637
    11.3255  11.6298  15.9258  16.9695  21.2169  21.3573  21.6240  22.9832
    24.4911  24.6736  25.4642  26.3731  27.8520  29.1823  30.4082  31.1285

          k = 0.0000 0.8500 0.4500 (  1612 PWs)   bands (ev):

    -5.0756  -3.8078  -1.0433  -0.3768   5.4885   5.8713   6.9088   7.4522
    11.0785  11.7886  15.5310  17.0774  21.0575  21.1039  22.0578  22.9815
    24.6676  24.7916  26.1031  26.3539  27.4029  29.1472  30.9385  31.1415

          k = 0.0000 0.8250 0.5250 (  1611 PWs)   bands (ev):

    -5.0710  -3.8243  -1.1517  -0.2246   5.1729   6.2571   7.0671   7.2824
    10.8513  12.0053  15.1601  17.2684  20.8594  21.0451  22.4973  22.8217
    24.8016  24.9369  25.8371  26.6298  27.2357  29.1807  30.9599  31.7293

          k =-0.0000 0.8000 0.6000 (  1614 PWs)   bands (ev):

    -5.0404  -3.8780  -1.2154  -0.0553   4.7478   6.4111   7.2821   7.3289
    10.6815  12.2433  14.8653  17.5225  20.6093  21.1715  22.5954  22.9191
    24.6514  25.0800  25.3954  27.0048  27.1074  29.0366  31.3286  31.6484

          k =-0.0000 0.7750 0.6750 (  1621 PWs)   bands (ev):

    -4.9848  -3.9560  -1.2291   0.0682   4.4033   6.2849   7.4654   7.5524
    10.6078  12.4218  14.7369  17.7893  20.3594  21.4081  22.4002  23.2993
    24.1277  25.1704  25.2025  27.0528  27.3230  28.5032  30.9319  32.1494

          k = 0.0000 0.7500 0.7500 (  1624 PWs)   bands (ev):

    -4.9047  -4.0484  -1.1907   0.0769   4.2479   6.0486   7.6359   7.6926
    10.6587  12.4351  14.8730  17.9432  20.2149  21.7136  22.2975  23.5415
    23.6168  24.9627  25.1490  27.1981  27.6669  27.6839  30.8335  31.6692

          k = 0.0000 0.7250 0.7750 (  1616 PWs)   bands (ev):

    -4.8999  -4.0509  -1.1871   0.0572   4.2781   6.0487   7.6240   7.6811
    10.6710  12.4116  14.9043  17.9083  20.2535  21.7116  22.3069  23.4650
    23.6785  24.9839  25.1272  27.2135  27.3875  27.9797  30.8498  31.6843

          k = 0.0000 0.7000 0.8000 (  1621 PWs)   bands (ev):

    -4.8855  -4.0586  -1.1760   0.0005   4.3662   6.0489   7.5895   7.6470
    10.7073  12.3452  14.9939  17.8107  20.3622  21.7071  22.3341  23.3489
    23.7480  25.0502  25.0612  27.1339  27.2565  28.2774  30.9009  31.7290

          k = 0.0000 0.6750 0.8250 (  1620 PWs)   bands (ev):

    -4.8615  -4.0720  -1.1577  -0.0867   4.5054   6.0485   7.5354   7.5917
    10.7647  12.2462  15.1299  17.6667  20.5246  21.7048  22.3762  23.2188
    23.7967  24.9509  25.1662  26.9269  27.3192  28.5371  30.9941  31.8014

          k = 0.0000 0.6500 0.8500 (  1616 PWs)   bands (ev):

    -4.8279  -4.0921  -1.1323  -0.1957   4.6860   6.0464   7.4662   7.5173
    10.8395  12.1264  15.2983  17.4935  20.7237  21.7112  22.4275  23.0757
    23.8253  24.8010  25.3319  26.7718  27.3905  28.7148  31.1421  31.5278

          k = 0.0000 0.6250 0.8750 (  1616 PWs)   bands (ev):

    -4.7848  -4.1201  -1.0999  -0.3170   4.8971   6.0409   7.3876   7.4272
    10.9273  11.9960  15.4861  17.3047  20.9456  21.7334  22.4794  22.9203
    23.8401  24.6233  25.5404  26.6655  27.4589  28.7625  31.2961  31.3624

          k = 0.0000 0.6000 0.9000 (  1613 PWs)   bands (ev):

    -4.7321  -4.1573  -1.0607  -0.4418   5.1267   6.0299   7.3055   7.3264
    11.0236  11.8630  15.6821  17.1103  21.1800  21.7779  22.5190  22.7547
    23.8489  24.4360  25.7799  26.5994  27.5146  28.6615  31.1859  31.6569

          k = 0.0000 0.5750 0.9250 (  1615 PWs)   bands (ev):

    -4.6700  -4.2054  -1.0151  -0.5625   5.3612   6.0106   7.2225   7.2262
    11.1240  11.7334  15.8772  16.9175  21.4184  21.8501  22.5298  22.5823
    23.8580  24.2596  26.0341  26.5626  27.5525  28.4481  31.1786  31.9675

          k = 0.0000 0.5500 0.9500 (  1615 PWs)   bands (ev):

    -4.5985  -4.2658  -0.9633  -0.6726   5.5830   5.9802   7.1279   7.1555
    11.2244  11.6120  16.0647  16.7318  21.6523  21.9530  22.4076  22.4946
    23.8721  24.1120  26.2783  26.5455  27.5787  28.1871  31.2423  31.8227

          k = 0.0000 0.5250 0.9750 (  1615 PWs)   bands (ev):

    -4.5175  -4.3396  -0.9057  -0.7673   5.7664   5.9363   7.0634   7.0982
    11.3208  11.5027  16.2394  16.5575  21.8705  22.0835  22.2377  22.4035
    23.8956  24.0030  26.4685  26.5403  27.6224  27.9366  31.3510  31.6531

          k = 0.0000 0.5000 1.0000 (  1628 PWs)   bands (ev):

    -4.4274  -4.4274  -0.8429  -0.8429   5.8779   5.8779   7.0576   7.0576
    11.4096  11.4096  16.3983  16.3983  22.0546  22.0546  22.2595  22.2595
    23.9341  23.9341  26.5411  26.5411  27.7371  27.7371  31.4905  31.4905

          k = 0.0000 0.4500 0.9000 (  1616 PWs)   bands (ev):

    -4.8598  -4.0118  -1.0006  -0.5515   5.6225   5.8549   6.9500   7.3688
    11.1702  11.6753  15.8428  16.8898  21.4101  21.4574  22.1813  22.8725
    24.2333  24.4171  26.1314  26.5133  27.4238  28.6684  31.0528  31.5775

          k =-0.0000 0.4000 0.8000 (  1616 PWs)   bands (ev):

    -5.3704  -3.5244  -0.9574  -0.2121   5.3830   5.5692   6.8917   7.6101
    11.2136  11.7625  15.4164  17.1892  20.6082  20.9314  21.4918  22.9385
    25.0575  25.1647  26.0681  26.2142  27.6925  29.7789  30.3109  31.0124

          k =-0.0000 0.3500 0.7000 (  1618 PWs)   bands (ev):

    -5.9068  -2.9660  -0.7474   0.1541   5.1586   5.2629   6.8715   7.4836
    11.5114  11.6827  15.1044  17.3901  19.7653  20.7098  20.8099  22.1994
    25.0187  25.3288  26.3633  27.4141  28.0654  30.1751  30.4934  31.6585

          k =-0.0000 0.3000 0.6000 (  1609 PWs)   bands (ev):

    -6.4241  -2.3381  -0.4108   0.5255   4.9409   5.0000   6.8409   7.0923
    11.5529  11.7870  14.8414  17.6054  18.8846  20.5287  20.5985  21.3374
    23.6619  25.9098  26.5862  28.5338  29.0601  30.6010  30.7438  31.3611

          k = 0.0000 0.2500 0.5000 (  1610 PWs)   bands (ev):

    -6.8918  -1.6441   0.0175   0.8836   4.7161   4.8018   6.5868   6.7120
    11.5441  11.8176  14.6130  17.7365  18.0612  20.2356  20.6166  21.2316
    22.1467  25.6918  26.7368  28.8522  30.5853  31.0084  31.0652  32.1239

          k = 0.0000 0.2000 0.4000 (  1613 PWs)   bands (ev):

    -7.2912  -0.8901   0.5041   1.2152   4.4705   4.6744   6.0539   6.3973
    11.5895  11.8041  14.4757  17.3661  17.4235  20.3817  20.5663  21.0468
    21.4847  24.0230  27.7890  29.3410  31.1621  31.8330  32.2071  33.0672

          k = 0.0000 0.1500 0.3000 (  1607 PWs)   bands (ev):

    -7.6106  -0.0873   1.0109   1.5105   4.1923   4.6134   5.5424   5.8898
    11.2106  12.3883  14.4926  16.8147  16.8462  19.2427  21.0040  21.4274
    21.7814  22.2251  29.0659  30.0280  31.5580  32.3281  33.2733  33.8902

          k =-0.0000 0.1000 0.2000 (  1600 PWs)   bands (ev):

    -7.8428   0.7415   1.4857   1.7565   3.8598   4.6035   5.0917   5.2940
    10.8098  13.2573  14.6835  16.3390  16.3950  17.9804  20.5809  21.6576
    21.8524  22.0410  30.4851  30.7993  32.0804  32.2039  33.8509  34.6154

          k =-0.0000 0.0500 0.1000 (  1623 PWs)   bands (ev):

    -7.9837   1.5348   1.8495   1.9287   3.4325   4.6180   4.7575   4.8081
    10.5063  14.3188  14.9986  16.0164  16.0777  16.8055  19.3382  22.1163
    22.1640  22.2168  31.4823  31.5248  31.9065  33.1017  34.1348  35.2724

          k = 0.0000 0.0000 0.0000 (  1639 PWs)   bands (ev):

    -8.0309   1.9925   1.9925   1.9925   3.1028   4.6275   4.6275   4.6275
    10.3930  15.2113  15.2113  15.9072  15.9072  15.9072  18.8501  22.2791
    22.2791  22.2791  31.7777  31.7777  31.7777  34.3153  34.3153  35.9500

     Writing output data file Si.save

     init_run     :      0.31s CPU      0.33s WALL (       1 calls)
     electrons    :     60.37s CPU     64.69s WALL (       1 calls)

     Called by init_run:
     wfcinit      :      0.00s CPU      0.00s WALL (       1 calls)
     potinit      :      0.05s CPU      0.06s WALL (       1 calls)

     Called by electrons:
     c_bands      :     60.37s CPU     64.69s WALL (       1 calls)
     v_of_rho     :      0.05s CPU      0.05s WALL (       1 calls)

     Called by c_bands:
     init_us_2    :      0.10s CPU      0.10s WALL (      51 calls)
     cegterg      :     53.92s CPU     57.77s WALL (      51 calls)

     Called by *egterg:
     h_psi        :     41.46s CPU     44.55s WALL (     888 calls)
     g_psi        :      0.11s CPU      0.12s WALL (     786 calls)
     cdiaghg      :      3.18s CPU      3.35s WALL (     837 calls)

     Called by h_psi:
     add_vuspsi   :      1.22s CPU      1.32s WALL (     888 calls)

     General routines
     calbec       :      1.38s CPU      1.48s WALL (     888 calls)
     fft          :      0.02s CPU      0.03s WALL (      11 calls)
     fftw         :     36.51s CPU     39.25s WALL (   26030 calls)
     davcio       :      0.01s CPU      0.01s WALL (      51 calls)

     Parallel routines
     fft_scatter  :      0.96s CPU      1.02s WALL (   26041 calls)

     PWSCF        :  1m 2.53s CPU     1m 7.29s WALL


   This run was terminated on:  16:54:58  12Feb2023            

=------------------------------------------------------------------------------=
   JOB DONE.
=------------------------------------------------------------------------------=
