
     Program PWSCF v.5.1 starts on 12Feb2023 at 16:51:46 

     This program is part of the open-source Quantum ESPRESSO suite
     for quantum simulation of materials; please cite
         "P. Giannozzi et al., J. Phys.:Condens. Matter 21 395502 (2009);
          URL http://www.quantum-espresso.org", 
     in publications or presentations arising from this work. More details at
     http://www.quantum-espresso.org/quote

     Parallel version (MPI), running on     1 processors
     Waiting for input...
     Reading input from standard input
Warning: card   SI   0.0000000000D0   0.5000000000D0   0.5000000000D0 ignored
Warning: card   SI   0.2500000000D0   0.7500000000D0   0.7500000000D0 ignored
Warning: card   SI   -0.5000000000D0   0.0000000000D0   0.5000000000D0 ignored
Warning: card   SI   -0.2500000000D0   0.2500000000D0   0.7500000000D0 ignored
Warning: card   SI   -0.5000000000D0   0.5000000000D0   0.10000000000D0 ignored
Warning: card   SI   -0.2500000000D0   0.7500000000D0   1.25000000000D0 ignored

     Current dimensions of program PWSCF are:
     Max number of different atomic species (ntypx) = 10
     Max number of k-points (npk) =  40000
     Max angular momentum in pseudopotentials (lmaxx) =  3

     Atomic positions and unit cell read from directory:
     ./out/Si.save/

               file Si.pbe-mt_fhi.UPF: wavefunction(s)  4f renormalized
               file B.pbe-mt_fhi.UPF: wavefunction(s)  4f renormalized

     Subspace diagonalization in iterative solution of the eigenvalue problem:
     a serial algorithm will be used


     G-vector sticks info
     --------------------
     sticks:   dense  smooth     PW     G-vecs:    dense   smooth      PW
     Sum         733     733    223                12939    12939    2229



     bravais-lattice index     =            2
     lattice parameter (alat)  =      10.2623  a.u.
     unit-cell volume          =     270.1967 (a.u.)^3
     number of atoms/cell      =            2
     number of atomic types    =            2
     number of electrons       =         6.00
     number of Kohn-Sham states=           24
     kinetic-energy cutoff     =      50.0000  Ry
     charge density cutoff     =     200.0000  Ry
     Exchange-correlation      = PBE ( 1  4  3  4 0)

     celldm(1)=  10.262347  celldm(2)=   0.000000  celldm(3)=   0.000000
     celldm(4)=   0.000000  celldm(5)=   0.000000  celldm(6)=   0.000000

     crystal axes: (cart. coord. in units of alat)
               a(1) = (  -0.500000   0.000000   0.500000 )  
               a(2) = (   0.000000   0.500000   0.500000 )  
               a(3) = (  -0.500000   0.500000   0.000000 )  

     reciprocal axes: (cart. coord. in units 2 pi/alat)
               b(1) = ( -1.000000 -1.000000  1.000000 )  
               b(2) = (  1.000000  1.000000  1.000000 )  
               b(3) = ( -1.000000  1.000000 -1.000000 )  


     PseudoPot. # 1 for Si read from file:
     /home/acedemo/psudo/Si.pbe-mt_fhi.UPF
     MD5 check sum: 259057c2adf9952f9ced37ae3d9e311d
     Pseudo is Norm-conserving, Zval =  4.0
     Generated using FHI98PP, converted with fhi2upf.x v.5.0.2
     Using radial grid of  495 points,  3 beta functions with: 
                l(1) =   0
                l(2) =   1
                l(3) =   3

     PseudoPot. # 2 for  B read from file:
     /home/acedemo/psudo/B.pbe-mt_fhi.UPF
     MD5 check sum: 3ba04917d1d3a8de85490f79a9c37fe5
     Pseudo is Norm-conserving + core correction, Zval =  3.0
     Generated using FHI98PP, converted with fhi2upf.x v.5.0.2
     Using radial grid of  453 points,  3 beta functions with: 
                l(1) =   0
                l(2) =   1
                l(3) =   3

     atomic species   valence    mass     pseudopotential
        Si             4.00    28.08550     Si( 1.00)
        B              3.00    10.81100      B( 1.00)

     48 Sym. Ops., with inversion, found (24 have fractional translation)



   Cartesian axes

     site n.     atom                  positions (alat units)
         1           B   tau(   1) = (   0.0000000   0.0000000   0.0000000  )
         2           B   tau(   2) = (   0.2500000   0.2500000   0.2500000  )

     number of k points=    72 (tetrahedron method)
                       cart. coord. in units 2pi/alat
        k(    1) = (   0.0000000   0.0000000   0.0000000), wk =   0.0011574
        k(    2) = (  -0.0833333   0.0833333  -0.0833333), wk =   0.0092593
        k(    3) = (  -0.1666667   0.1666667  -0.1666667), wk =   0.0092593
        k(    4) = (  -0.2500000   0.2500000  -0.2500000), wk =   0.0092593
        k(    5) = (  -0.3333333   0.3333333  -0.3333333), wk =   0.0092593
        k(    6) = (  -0.4166667   0.4166667  -0.4166667), wk =   0.0092593
        k(    7) = (   0.5000000  -0.5000000   0.5000000), wk =   0.0046296
        k(    8) = (   0.0000000   0.1666667   0.0000000), wk =   0.0069444
        k(    9) = (  -0.0833333   0.2500000  -0.0833333), wk =   0.0277778
        k(   10) = (  -0.1666667   0.3333333  -0.1666667), wk =   0.0277778
        k(   11) = (  -0.2500000   0.4166667  -0.2500000), wk =   0.0277778
        k(   12) = (  -0.3333333   0.5000000  -0.3333333), wk =   0.0277778
        k(   13) = (   0.5833333  -0.4166667   0.5833333), wk =   0.0277778
        k(   14) = (   0.5000000  -0.3333333   0.5000000), wk =   0.0277778
        k(   15) = (   0.4166667  -0.2500000   0.4166667), wk =   0.0277778
        k(   16) = (   0.3333333  -0.1666667   0.3333333), wk =   0.0277778
        k(   17) = (   0.2500000  -0.0833333   0.2500000), wk =   0.0277778
        k(   18) = (   0.1666667  -0.0000000   0.1666667), wk =   0.0138889
        k(   19) = (   0.0000000   0.3333333   0.0000000), wk =   0.0069444
        k(   20) = (  -0.0833333   0.4166667  -0.0833333), wk =   0.0277778
        k(   21) = (  -0.1666667   0.5000000  -0.1666667), wk =   0.0277778
        k(   22) = (  -0.2500000   0.5833333  -0.2500000), wk =   0.0277778
        k(   23) = (   0.6666667  -0.3333333   0.6666667), wk =   0.0277778
        k(   24) = (   0.5833333  -0.2500000   0.5833333), wk =   0.0277778
        k(   25) = (   0.5000000  -0.1666667   0.5000000), wk =   0.0277778
        k(   26) = (   0.4166667  -0.0833333   0.4166667), wk =   0.0277778
        k(   27) = (   0.3333333   0.0000000   0.3333333), wk =   0.0138889
        k(   28) = (   0.0000000   0.5000000   0.0000000), wk =   0.0069444
        k(   29) = (  -0.0833333   0.5833333  -0.0833333), wk =   0.0277778
        k(   30) = (  -0.1666667   0.6666667  -0.1666667), wk =   0.0277778
        k(   31) = (   0.7500000  -0.2500000   0.7500000), wk =   0.0277778
        k(   32) = (   0.6666667  -0.1666667   0.6666667), wk =   0.0277778
        k(   33) = (   0.5833333  -0.0833333   0.5833333), wk =   0.0277778
        k(   34) = (   0.5000000   0.0000000   0.5000000), wk =   0.0138889
        k(   35) = (   0.0000000   0.6666667   0.0000000), wk =   0.0069444
        k(   36) = (  -0.0833333   0.7500000  -0.0833333), wk =   0.0277778
        k(   37) = (   0.8333333  -0.1666667   0.8333333), wk =   0.0277778
        k(   38) = (   0.7500000  -0.0833333   0.7500000), wk =   0.0277778
        k(   39) = (   0.6666667   0.0000000   0.6666667), wk =   0.0138889
        k(   40) = (   0.0000000   0.8333333   0.0000000), wk =   0.0069444
        k(   41) = (   0.9166667  -0.0833333   0.9166667), wk =   0.0277778
        k(   42) = (   0.8333333   0.0000000   0.8333333), wk =   0.0138889
        k(   43) = (   0.0000000  -1.0000000   0.0000000), wk =   0.0034722
        k(   44) = (  -0.1666667   0.3333333   0.0000000), wk =   0.0277778
        k(   45) = (  -0.2500000   0.4166667  -0.0833333), wk =   0.0555556
        k(   46) = (  -0.3333333   0.5000000  -0.1666667), wk =   0.0555556
        k(   47) = (   0.5833333  -0.4166667   0.7500000), wk =   0.0555556
        k(   48) = (   0.5000000  -0.3333333   0.6666667), wk =   0.0277778
        k(   49) = (  -0.1666667   0.5000000   0.0000000), wk =   0.0277778
        k(   50) = (  -0.2500000   0.5833333  -0.0833333), wk =   0.0555556
        k(   51) = (   0.6666667  -0.3333333   0.8333333), wk =   0.0555556
        k(   52) = (   0.5833333  -0.2500000   0.7500000), wk =   0.0555556
        k(   53) = (   0.5000000  -0.1666667   0.6666667), wk =   0.0555556
        k(   54) = (   0.4166667  -0.0833333   0.5833333), wk =   0.0555556
        k(   55) = (   0.3333333   0.0000000   0.5000000), wk =   0.0277778
        k(   56) = (  -0.1666667   0.6666667  -0.0000000), wk =   0.0277778
        k(   57) = (   0.7500000  -0.2500000   0.9166667), wk =   0.0555556
        k(   58) = (   0.6666667  -0.1666667   0.8333333), wk =   0.0555556
        k(   59) = (   0.5833333  -0.0833333   0.7500000), wk =   0.0555556
        k(   60) = (   0.5000000   0.0000000   0.6666667), wk =   0.0277778
        k(   61) = (   0.8333333  -0.1666667   1.0000000), wk =   0.0277778
        k(   62) = (   0.7500000  -0.0833333   0.9166667), wk =   0.0555556
        k(   63) = (   0.6666667   0.0000000   0.8333333), wk =   0.0277778
        k(   64) = (  -0.1666667  -1.0000000   0.0000000), wk =   0.0138889
        k(   65) = (   0.6666667  -0.3333333   1.0000000), wk =   0.0277778
        k(   66) = (   0.5833333  -0.2500000   0.9166667), wk =   0.0555556
        k(   67) = (   0.5000000  -0.1666667   0.8333333), wk =   0.0277778
        k(   68) = (   0.6666667  -0.1666667   1.0000000), wk =   0.0277778
        k(   69) = (   0.5833333  -0.0833333   0.9166667), wk =   0.0555556
        k(   70) = (   0.5000000   0.0000000   0.8333333), wk =   0.0277778
        k(   71) = (  -0.3333333  -1.0000000   0.0000000), wk =   0.0138889
        k(   72) = (  -0.5000000  -1.0000000   0.0000000), wk =   0.0069444

     Dense  grid:    12939 G-vectors     FFT dimensions: (  36,  36,  36)

     Largest allocated arrays     est. size (Mb)     dimensions
        Kohn-Sham Wavefunctions         0.60 Mb     (    1639,   24)
        NL pseudopotentials             0.55 Mb     (    1639,   22)
        Each V/rho on FFT grid          0.71 Mb     (   46656)
        Each G-vector array             0.10 Mb     (   12939)
        G-vector shells                 0.00 Mb     (     180)
     Largest temporary arrays     est. size (Mb)     dimensions
        Auxiliary wavefunctions         2.40 Mb     (    1639,   96)
        Each subspace H/S matrix        0.14 Mb     (      96,   96)
        Each <psi_i|beta_j> matrix      0.01 Mb     (      22,   24)

     Check: negative/imaginary core charge=   -0.000071    0.000000

     The potential is recalculated from file :
     ./out/Si.save/charge-density.dat

     Starting wfc are   32 randomized atomic wfcs

     Band Structure Calculation
     Davidson diagonalization with overlap

     ethr =  2.67E-11,  avg # of iterations = 15.1

     total cpu time spent up to now is       94.7 secs

     End of band structure calculation

          k = 0.0000 0.0000 0.0000 (  1639 PWs)   bands (ev):

    -8.0309   1.9925   1.9925   1.9925   3.1028   4.6275   4.6275   4.6275
    10.3930  15.2113  15.2113  15.9072  15.9072  15.9072  18.8501  22.2791
    22.2791  22.2791  31.7777  31.7777  31.7777  34.3153  34.3153  35.9500

          k =-0.0833 0.0833-0.0833 (  1612 PWs)   bands (ev):

    -7.9523   1.2340   1.8865   1.8865   3.4909   4.7672   4.7672   4.8756
    10.5760  14.4572  14.4572  15.4745  16.9785  16.9785  19.5845  21.9728
    22.1530  22.1530  31.2051  31.2051  32.1049  33.3691  33.3691  35.6334

          k =-0.1667 0.1667-0.1667 (  1591 PWs)   bands (ev):

    -7.7195   0.0252   1.6422   1.6422   3.6185   5.0926   5.0926   5.6447
    11.0002  13.7992  13.7992  14.7826  18.5945  18.5945  21.1065  21.3877
    21.7307  21.7307  29.8015  29.8015  32.4033  32.8508  32.8508  35.1613

          k =-0.2500 0.2500-0.2500 (  1618 PWs)   bands (ev):

    -7.3433  -1.2057   1.3755   1.3755   3.5180   5.4401   5.4401   6.5869
    11.3879  13.5444  13.5444  14.2394  20.4258  20.4258  20.7946  20.9689
    20.9689  23.1916  28.6242  28.6242  31.2647  32.3828  32.3828  35.2414

          k =-0.3333 0.3333-0.3333 (  1616 PWs)   bands (ev):

    -6.8519  -2.3448   1.1558   1.1558   3.3907   5.6998   5.6998   7.4701
    11.6029  13.6948  13.6948  13.7419  19.8536  19.8536  20.9186  22.4954
    22.4954  25.2966  27.9723  27.9723  29.5442  31.5069  31.5069  35.3710

          k =-0.4167 0.4167-0.4167 (  1616 PWs)   bands (ev):

    -6.3317  -3.2667   1.0151   1.0151   3.3001   5.8413   5.8413   8.1330
    11.8099  13.1301  14.0960  14.0960  18.8213  18.8213  21.6756  24.5252
    24.5252  26.2114  27.7069  27.7069  29.3151  30.1370  30.1370  34.2773

          k = 0.5000-0.5000 0.5000 (  1622 PWs)   bands (ev):

    -6.0583  -3.6760   0.9670   0.9670   3.2681   5.8836   5.8836   8.3857
    12.0421  12.6995  14.3425  14.3425  18.3517  18.3517  22.2683  25.6734
    25.7313  25.7313  27.6346  27.6346  29.1184  29.1184  31.1571  32.1336

          k = 0.0000 0.1667 0.0000 (  1615 PWs)   bands (ev):

    -7.9261   1.2525   1.7040   1.7040   3.7432   4.5093   4.9879   4.9879
    10.6398  13.5543  15.3508  16.1487  16.1487  17.0803  19.9558  22.0215
    22.0215  22.0513  31.4016  31.4016  31.8375  31.8956  34.6874  34.8715

          k =-0.0833 0.2500-0.0833 (  1599 PWs)   bands (ev):

    -7.7443   0.3240   1.4256   1.5218   4.0051   4.5920   5.3591   5.5388
    10.9932  12.7801  14.8350  15.7373  17.3635  18.3601  21.3196  21.4397
    21.6175  21.9028  29.8685  30.4091  31.7565  32.2810  33.6959  34.3331

          k =-0.1667 0.3333-0.1667 (  1610 PWs)   bands (ev):

    -7.4147  -0.8400   1.1577   1.2599   3.9481   4.9628   5.7268   6.3329
    11.3960  12.4122  14.4247  15.1640  19.1158  20.1114  20.8380  20.8555
    21.5466  23.1390  28.5148  29.0912  31.7056  31.8567  32.8262  33.8508

          k =-0.2500 0.4167-0.2500 (  1606 PWs)   bands (ev):

    -6.9574  -1.9837   0.9588   0.9729   3.8173   5.3604   5.9839   7.1315
    11.6260  12.4503  14.3770  14.7100  19.8011  20.4655  20.9015  21.0940
    22.3660  25.0885  27.7822  28.1138  30.0168  31.5690  31.8450  33.7289

          k =-0.3333 0.5000-0.3333 (  1616 PWs)   bands (ev):

    -6.4301  -2.9793   0.7321   0.8547   3.7075   5.6518   6.0937   7.8269
    11.7484  12.6191  14.4065  14.5284  18.8075  19.7780  21.3207  23.2008
    24.3933  26.2890  27.5054  27.6260  29.0844  30.4148  30.7353  34.0279

          k = 0.5833-0.4167 0.5833 (  1615 PWs)   bands (ev):

    -6.0261  -3.6014   0.5728   0.8536   3.6495   5.8284   6.0767   8.2398
    11.8379  12.6246  14.4384  14.5437  18.4564  18.9943  22.1223  25.1395
    25.3897  25.9222  27.4560  27.4927  28.9585  29.5494  30.7028  32.9334

          k = 0.5000-0.3333 0.5000 (  1616 PWs)   bands (ev):

    -6.1244  -3.4584   0.5127   0.9530   3.6524   5.9158   5.9621   8.1619
    11.7674  12.8264  13.8918  14.8618  18.7525  19.0014  21.8508  24.4904
    25.5655  25.9624  27.3170  27.5688  29.4416  29.5911  30.3832  33.2069

          k = 0.4167-0.2500 0.4167 (  1611 PWs)   bands (ev):

    -6.6077  -2.6705   0.5614   1.1410   3.7130   5.7555   5.9003   7.6251
    11.6656  13.1406  13.2866  15.0604  19.2523  19.9997  20.9391  22.4562
    24.0056  26.0952  27.4311  27.7470  29.1701  30.9681  31.0994  34.0438

          k = 0.3333-0.1667 0.3333 (  1605 PWs)   bands (ev):

    -7.1227  -1.6117   0.7233   1.3938   3.8114   5.4545   5.7204   6.8703
    11.5491  12.9649  13.2717  15.3556  19.7971  20.2075  20.9788  21.0345
    22.0504  24.2993  27.8888  28.3338  30.6309  31.8992  32.2064  33.9128

          k = 0.2500-0.0833 0.2500 (  1600 PWs)   bands (ev):

    -7.5408  -0.4625   1.0012   1.6647   3.8893   5.1015   5.3430   6.0975
    11.2576  13.0595  13.4907  15.8002  18.1005  20.1241  20.7835  21.3589
    21.7085  22.3201  28.8280  29.3783  32.1549  32.4137  32.7684  34.1519

          k = 0.1667-0.0000 0.1667 (  1592 PWs)   bands (ev):

    -7.8222   0.5941   1.4167   1.8665   3.7852   4.8194   4.9452   5.3927
    10.8428  13.5768  14.0410  16.3860  16.4433  18.4208  20.6203  21.5368
    21.8302  22.0620  30.2257  30.5438  32.3527  32.7077  33.2232  34.6541

          k = 0.0000 0.3333 0.0000 (  1607 PWs)   bands (ev):

    -7.6141   0.1105   1.1277   1.1277   4.2373   4.5191   5.7732   5.7732
    11.2528  11.9096  15.7693  16.8438  16.8438  18.0403  21.3233  21.3233
    21.5423  22.5209  29.0601  30.8979  30.8979  31.9046  33.5618  33.5618

          k =-0.0833 0.4167-0.0833 (  1616 PWs)   bands (ev):

    -7.3336  -0.7083   0.8365   0.8509   4.2721   4.6917   6.1858   6.3202
    11.4605  11.6243  15.5307  16.5826  18.1097  19.4110  20.7400  20.7717
    21.4239  24.0718  27.7372  29.9838  31.0040  31.8112  32.6317  32.7861

          k =-0.1667 0.5000-0.1667 (  1611 PWs)   bands (ev):

    -6.9173  -1.7119   0.4843   0.6523   4.3295   4.9963   6.4832   6.8636
    11.4776  11.8533  15.3005  16.0617  19.6178  20.1725  20.2623  21.1925
    21.7512  25.6537  26.9218  28.7685  30.3055  31.2140  31.8079  32.1278

          k =-0.2500 0.5833-0.2500 (  1610 PWs)   bands (ev):

    -6.4042  -2.6835   0.1390   0.5585   4.2600   5.4617   6.6101   7.3522
    11.7285  11.8963  15.1713  15.6168  18.9388  20.6491  20.9777  22.0515
    23.8332  26.3562  26.6229  27.8748  29.1034  30.8108  30.8665  32.1743

          k = 0.6667-0.3333 0.6667 (  1607 PWs)   bands (ev):

    -5.9219  -3.4260  -0.1304   0.5775   4.2030   5.8129   6.5731   7.8082
    11.4633  12.3363  14.7361  15.4601  18.7480  20.2765  21.7333  24.1336
    25.0275  25.8487  26.6377  27.2109  28.9174  30.1435  30.1961  32.5793

          k = 0.5833-0.2500 0.5833 (  1602 PWs)   bands (ev):

    -5.8298  -3.5509  -0.2873   0.7052   4.1932   6.0270   6.4046   7.9565
    11.2881  12.7035  13.9430  15.6964  19.3162  19.8460  21.7404  24.4422
    25.5323  25.7640  26.5805  27.0845  29.2862  29.5214  30.6870  32.9530

          k = 0.5000-0.1667 0.5000 (  1610 PWs)   bands (ev):

    -6.2391  -2.9480  -0.3049   0.9254   4.2241   6.1269   6.1357   7.5734
    11.4387  12.9200  13.1847  16.1760  19.6214  20.2021  20.7311  22.7645
    25.1873  26.4114  26.6311  27.4065  29.0947  30.2119  30.9125  32.8357

          k = 0.4167-0.0833 0.4167 (  1613 PWs)   bands (ev):

    -6.7632  -2.0442  -0.1454   1.2054   4.2582   5.7609   6.0491   6.9817
    11.6229  12.7316  12.9938  16.7995  18.9405  20.2887  21.0026  21.2209
    23.6701  25.7546  26.9065  27.7514  29.9333  31.0657  31.7190  32.5783

          k = 0.3333 0.0000 0.3333 (  1604 PWs)   bands (ev):

    -7.2154  -1.1451   0.2736   1.4851   4.1939   5.3731   5.6683   6.5414
    11.5578  12.6887  13.0938  17.4580  17.4934  20.1889  21.1182  21.4999
    21.8595  23.9797  27.6923  28.5661  31.4843  31.6764  32.4310  33.0545

          k = 0.0000 0.5000 0.0000 (  1612 PWs)   bands (ev):

    -7.1024  -1.0804   0.5600   0.5600   3.9627   4.9029   6.6633   6.6633
    10.9574  11.9344  16.4665  17.8149  17.8149  19.2049  20.5198  20.5198
    21.1403  25.3335  26.4538  30.8015  30.8015  31.5974  31.8376  31.8376

          k =-0.0833 0.5833-0.0833 (  1617 PWs)   bands (ev):

    -6.7310  -1.7933   0.2213   0.3473   4.0561   4.9394   7.0332   7.0543
    10.9376  12.1349  16.4076  17.5667  18.7912  20.0007  20.2969  21.1034
    21.1628  25.4782  26.4214  30.0873  30.3709  30.8642  31.0386  31.5166

          k =-0.1667 0.6667-0.1667 (  1620 PWs)   bands (ev):

    -6.2460  -2.5965  -0.2325   0.2427   4.2583   5.2386   7.2178   7.2721
    11.2488  12.0647  16.0130  17.0439  19.0467  20.4274  21.2627  21.3725
    23.2062  25.1071  26.4353  28.7787  28.8905  30.0782  31.3878  31.5112

          k = 0.7500-0.2500 0.7500 (  1617 PWs)   bands (ev):

    -5.7291  -3.3202  -0.6488   0.2571   4.3165   5.8384   7.1998   7.4328
    11.1942  12.1778  15.2588  16.7700  19.1468  21.0480  21.5600  23.3134
    24.7136  25.1471  25.4852  27.4671  28.5255  29.6135  30.1338  31.7444

          k = 0.6667-0.1667 0.6667 (  1607 PWs)   bands (ev):

    -5.4697  -3.6386  -0.9270   0.3875   4.3631   6.3316   7.0026   7.5872
    10.7889  12.5836  14.2830  16.8267  19.6944  21.0649  21.7641  23.9181
    24.9566  25.6792  25.8330  26.3723  28.7156  29.6953  29.9959  31.8134

          k = 0.5833-0.0833 0.5833 (  1611 PWs)   bands (ev):

    -5.7747  -3.2525  -0.9995   0.6175   4.4270   6.5950   6.6589   7.3962
    10.8519  12.8553  13.4239  17.1065  20.1838  20.3637  21.4131  22.9719
    25.2250  25.7636  26.6423  27.0082  28.1858  30.1878  31.6112  31.8725

          k = 0.5000 0.0000 0.5000 (  1604 PWs)   bands (ev):

    -6.2899  -2.5979  -0.7696   0.9119   4.4421   6.2138   6.5465   7.0014
    11.3190  12.8825  12.9471  17.3733  19.0566  20.8320  21.3096  21.3494
    24.9377  26.1632  26.8566  27.3060  28.8260  30.7644  30.8418  32.2770

          k = 0.0000 0.6667 0.0000 (  1624 PWs)   bands (ev):

    -6.4043  -2.2731   0.1134   0.1134   3.7984   4.7773   7.4918   7.4918
    10.8231  12.3413  17.4419  18.1669  18.1669  20.7355  20.7375  20.7375
    21.2508  24.1074  26.8010  29.6752  29.6752  31.0401  31.1961  31.1961

          k =-0.0833 0.7500-0.0833 (  1618 PWs)   bands (ev):

    -5.9549  -2.9036  -0.2135  -0.0134   3.9595   4.7366   7.7327   7.7579
    11.0805  12.2636  17.0187  17.8535  18.8011  20.7483  21.5265  21.6097
    22.7341  23.4214  26.3244  28.0812  28.6306  30.0174  30.7823  31.5494

          k = 0.8333-0.1667 0.8333 (  1619 PWs)   bands (ev):

    -5.4340  -3.5220  -0.7075  -0.0187   4.1594   5.2044   7.7527   7.7860
    11.2129  12.1097  16.0139  17.7127  19.5015  21.0790  22.2510  22.7584
    23.6224  24.4296  25.1467  26.9873  27.9488  28.9108  30.2826  31.9598

          k = 0.7500-0.0833 0.7500 (  1620 PWs)   bands (ev):

    -5.0597  -3.9072  -1.1266   0.0973   4.2581   6.0320   7.5822   7.6429
    10.7351  12.4021  14.9325  17.7785  20.0244  21.4322  22.5516  23.4311
    23.8428  24.6671  25.4670  26.9108  28.0253  28.0596  30.2496  32.2621

          k = 0.6667 0.0000 0.6667 (  1612 PWs)   bands (ev):

    -5.2850  -3.6687  -1.2766   0.3204   4.3706   6.7122   7.1837   7.3949
    10.4763  12.6999  14.0210  17.7187  20.3360  20.7274  22.4789  23.0504
    24.6069  25.4686  25.9518  26.7449  27.5372  29.2581  31.3077  31.8013

          k = 0.0000 0.8333 0.0000 (  1628 PWs)   bands (ev):

    -5.5408  -3.4380  -0.1673  -0.1673   3.8073   4.3817   8.1076   8.1076
    11.2366  12.2713  17.6635  17.6635  18.6951  22.0298  22.0702  22.4201
    22.4201  22.5446  25.8697  27.2905  27.2905  28.1582  31.9369  31.9369

          k = 0.9167-0.0833 0.9167 (  1622 PWs)   bands (ev):

    -5.0333  -3.9980  -0.4355  -0.2000   4.0114   4.4141   8.1830   8.1956
    11.4870  12.0218  16.8986  17.6156  19.7391  21.4265  22.2903  22.9195
    23.6182  24.1438  24.9615  26.0561  26.3227  27.7234  31.4320  32.3889

          k = 0.8333 0.0000 0.8333 (  1614 PWs)   bands (ev):

    -4.6732  -4.3210  -0.8700  -0.1082   4.1272   5.1382   8.0025   8.0082
    11.1414  12.1445  15.8557  17.8723  20.1826  22.2154  22.3286  22.8554
    23.4921  24.4771  24.8400  26.4463  27.0076  27.8175  30.7108  31.7208

          k = 0.0000-1.0000 0.0000 (  1604 PWs)   bands (ev):

    -4.5400  -4.5400  -0.2628  -0.2628   4.0122   4.0122   8.3419   8.3419
    11.8189  11.8189  17.4011  17.4011  20.2248  20.2248  23.2506  23.2506
    24.1640  24.1640  25.3464  25.3464  25.7771  25.7771  32.6900  32.6900

          k =-0.1667 0.3333 0.0000 (  1603 PWs)   bands (ev):

    -7.5135  -0.3592   0.8425   1.4167   4.2895   4.6271   5.7082   6.0761
    11.3456  12.1586  14.4674  16.9829  17.0415  19.6858  20.7762  21.2817
    21.6837  22.8175  28.6168  29.7837  31.4173  32.2364  32.9646  33.6297

          k =-0.2500 0.4167-0.0833 (  1607 PWs)   bands (ev):

    -7.1402  -1.3250   0.4080   1.1986   4.3052   5.0074   6.0896   6.6360
    11.6379  11.9779  14.1444  16.4724  18.7272  20.1918  20.8191  21.3286
    21.6323  24.5601  27.5514  28.7212  31.0211  31.4746  32.0938  32.8629

          k =-0.3333 0.5000-0.1667 (  1604 PWs)   bands (ev):

    -6.6521  -2.3466   0.1544   0.9457   4.2178   5.4496   6.3094   7.2332
    11.7088  12.1446  14.0801  15.9699  19.3564  20.3113  20.8204  21.5714
    23.5833  26.1289  26.9827  27.8964  29.4443  31.0948  31.2388  32.5096

          k = 0.5833-0.4167 0.7500 (  1612 PWs)   bands (ev):

    -6.1330  -3.2174   0.0249   0.7550   4.1444   5.7436   6.3725   7.8029
    11.5933  12.4178  14.1829  15.5041  18.9624  20.0367  21.3467  23.5131
    25.2444  26.1023  26.7990  27.4903  29.1930  29.9341  30.6697  32.8581

          k = 0.5000-0.3333 0.6667 (  1602 PWs)   bands (ev):

    -5.8575  -3.6143  -0.0136   0.6843   4.1173   5.8409   6.3795   8.0637
    11.4887  12.5377  14.3628  15.1963  18.9221  19.6240  22.0203  24.7415
    25.4585  25.8461  26.7016  27.2731  29.2080  29.4953  30.6132  32.7679

          k =-0.1667 0.5000 0.0000 (  1617 PWs)   bands (ev):

    -7.0082  -1.3658   0.2837   0.7420   4.3736   4.8251   6.6274   6.6662
    11.2327  11.8868  15.3828  17.8101  17.8724  20.2671  20.3494  21.0554
    21.2344  25.4900  26.6671  29.6546  30.7560  31.2503  31.2637  32.1808

          k =-0.2500 0.5833-0.0833 (  1611 PWs)   bands (ev):

    -6.5567  -2.1891  -0.1368   0.5297   4.5649   5.0964   6.8267   7.0537
    11.4159  11.9086  15.1679  17.1409  19.1091  20.1044  20.8480  21.1898
    22.9325  26.0384  26.4793  28.7491  29.4673  30.7201  31.0038  31.4605

          k = 0.6667-0.3333 0.8333 (  1617 PWs)   bands (ev):

    -6.0336  -3.0118  -0.4343   0.3695   4.5592   5.6072   6.8900   7.3903
    11.4681  11.9601  15.0150  16.4731  19.2595  20.7549  21.0249  22.6185
    24.7855  25.8400  26.0547  27.7504  28.5506  30.1730  30.9426  31.4344

          k = 0.5833-0.2500 0.7500 (  1607 PWs)   bands (ev):

    -5.6286  -3.5632  -0.6326   0.3498   4.5513   5.9309   6.8916   7.6620
    11.0830  12.3336  14.6744  16.1648  19.4090  20.8580  21.6452  24.1148
    24.9953  25.7615  25.9348  26.9072  28.9723  29.3639  30.4397  31.7353

          k = 0.5000-0.1667 0.6667 (  1605 PWs)   bands (ev):

    -5.7386  -3.4159  -0.7115   0.4749   4.5765   5.9876   6.8062   7.6192
    11.0601  12.4266  14.1855  16.4258  19.7708  20.6992  21.2121  23.6617
    25.4139  25.8076  26.0934  27.1015  28.6354  29.7309  31.0432  31.8280

          k = 0.4167-0.0833 0.5833 (  1610 PWs)   bands (ev):

    -6.2248  -2.7303  -0.6189   0.7085   4.6131   5.7490   6.7263   7.1894
    11.4249  12.1853  13.9400  16.9841  19.4860  20.4063  20.9957  21.9674
    24.9203  26.1254  26.6410  27.5489  28.7212  30.6028  30.9690  31.6423

          k = 0.3333 0.0000 0.5000 (  1606 PWs)   bands (ev):

    -6.7313  -1.9553  -0.2662   0.9859   4.5800   5.2985   6.5384   6.8022
    11.7039  11.9378  13.9250  17.5945  18.3322  20.4138  20.8353  21.1654
    23.3292  25.9940  26.6460  28.1262  30.0396  30.7966  31.4583  31.8118

          k =-0.1667 0.6667-0.0000 (  1626 PWs)   bands (ev):

    -6.3218  -2.4098  -0.1420   0.1552   4.2124   4.9340   7.2262   7.4640
    11.0672  12.1584  16.3346  17.8835  18.9595  20.0633  20.7108  21.4153
    22.4679  24.6582  26.6884  28.9047  29.8425  30.0907  30.7474  31.8579

          k = 0.7500-0.2500 0.9167 (  1621 PWs)   bands (ev):

    -5.8157  -3.0784  -0.5593  -0.0019   4.4938   5.2478   7.2327   7.6772
    11.3375  11.9280  15.9468  17.3515  19.6495  20.4955  21.2709  22.3349
    24.3394  24.5233  25.8629  27.3982  28.7909  29.4518  30.6808  31.3350

          k = 0.6667-0.1667 0.8333 (  1616 PWs)   bands (ev):

    -5.3346  -3.6405  -0.9429  -0.0012   4.5833   5.9415   7.2006   7.6183
    10.9941  12.1339  15.2634  17.1631  19.9525  21.1592  22.0287  23.5532
    24.3266  24.7362  25.7733  26.8481  27.8557  29.6035  29.8268  31.3837

          k = 0.5833-0.0833 0.7500 (  1614 PWs)   bands (ev):

    -5.2815  -3.6904  -1.1562   0.1473   4.6606   6.4158   7.1930   7.3579
    10.6638  12.3803  14.5118  17.3198  20.2723  21.0041  22.1593  23.2320
    25.1017  25.3634  25.5580  26.7573  27.5788  29.5047  31.2457  31.4378

          k = 0.5000 0.0000 0.6667 (  1621 PWs)   bands (ev):

    -5.7191  -3.2168  -1.0808   0.4050   4.7186   6.2474   7.0515   7.1942
    10.8969  12.3550  14.0575  17.4126  19.9547  20.5633  21.8973  22.3614
    25.3707  25.6490  26.5325  27.2086  27.4653  30.5641  30.9364  31.4934

          k = 0.8333-0.1667 1.0000 (  1617 PWs)   bands (ev):

    -5.4783  -3.4731  -0.3860  -0.2431   4.2052   4.6726   7.8037   8.0352
    11.3397  12.0408  16.8512  17.4088  19.6681  21.3539  21.5693  22.4214
    23.3387  24.1004  25.5803  26.3230  27.8858  29.2853  30.6921  31.4839

          k = 0.7500-0.0833 0.9167 (  1620 PWs)   bands (ev):

    -4.9641  -3.9965  -0.7982  -0.2737   4.4546   5.1790   7.7178   7.9519
    11.2693  11.9354  16.0930  17.3911  20.5089  21.6269  22.3907  22.6747
    23.8336  24.4950  25.0118  26.0483  27.7247  28.6778  30.3865  31.6204

          k = 0.6667 0.0000 0.8333 (  1620 PWs)   bands (ev):

    -4.8514  -4.0779  -1.1501  -0.1211   4.5615   6.0480   7.5137   7.5689
    10.7879  12.2081  15.1831  17.6115  20.5877  21.7056  22.3926  23.1726
    23.8083  24.9049  25.2161  26.8694  27.3426  28.6079  31.0366  31.7316

          k =-0.1667-1.0000 0.0000 (  1622 PWs)   bands (ev):

    -4.5133  -4.5133  -0.4238  -0.4238   4.3722   4.3722   8.1529   8.1529
    11.7109  11.7109  17.0350  17.0350  20.8508  20.8508  22.8601  22.8601
    24.1701  24.1701  24.9326  24.9326  27.2644  27.2644  31.6390  31.6390

          k = 0.6667-0.3333 1.0000 (  1610 PWs)   bands (ev):

    -6.0831  -2.7642  -0.6475   0.2783   5.0860   5.1689   6.8661   7.3739
    11.6208  11.6369  15.0138  17.4573  19.4728  20.6674  20.6802  21.8768
    24.6119  25.4905  26.5282  27.9543  28.2196  30.3316  30.5935  31.7281

          k = 0.5833-0.2500 0.9167 (  1611 PWs)   bands (ev):

    -5.5679  -3.3783  -0.9229   0.0404   5.0910   5.7540   6.9366   7.4982
    11.1268  11.9496  15.0049  17.0676  20.1900  20.7405  21.4945  22.9658
    25.1913  25.4999  25.9405  27.0381  27.5841  30.0256  30.5499  30.9852

          k = 0.5000-0.1667 0.8333 (  1610 PWs)   bands (ev):

    -5.2778  -3.7115  -1.0031  -0.0540   5.0850   5.9779   7.2058   7.3288
    10.8749  12.1027  15.0384  16.8312  20.1853  21.4101  21.8141  23.4847
    24.6661  25.4453  25.9892  26.6208  27.6548  29.4988  30.8560  31.2628

          k = 0.6667-0.1667 1.0000 (  1618 PWs)   bands (ev):

    -5.3072  -3.5958  -0.8090  -0.3359   5.1408   5.2942   7.1259   7.7814
    11.4675  11.5934  15.9081  17.1180  20.8797  21.0817  21.1959  22.9450
    24.7038  24.9030  25.5875  26.0351  28.2004  29.6635  29.8334  31.1623

          k = 0.5833-0.0833 0.9167 (  1615 PWs)   bands (ev):

    -4.8856  -4.0044  -1.0272  -0.4475   5.2723   5.9735   7.0745   7.4385
    11.0719  11.8088  15.7106  17.0047  21.0484  21.5747  22.3802  22.8952
    23.9841  24.7042  25.8176  26.6118  27.4536  28.8641  31.0217  31.2725

          k = 0.5000 0.0000 0.8333 (  1612 PWs)   bands (ev):

    -5.0755  -3.8140  -1.1202  -0.2798   5.3037   6.1443   6.9911   7.3284
    10.9225  11.9282  15.2785  17.1964  20.9406  21.0326  22.3521  22.8873
    24.7704  24.8868  26.0336  26.4733  27.2768  29.1729  30.9115  31.5581

          k =-0.3333-1.0000 0.0000 (  1618 PWs)   bands (ev):

    -4.4570  -4.4570  -0.7113  -0.7113   5.2183   5.2183   7.5956   7.5956
    11.5054  11.5054  16.5664  16.5664  21.7769  21.7769  22.4277  22.4277
    23.7963  23.7963  25.8310  25.8310  28.3611  28.3611  31.0501  31.0501

          k =-0.5000-1.0000 0.0000 (  1628 PWs)   bands (ev):

    -4.4274  -4.4274  -0.8429  -0.8429   5.8779   5.8779   7.0576   7.0576
    11.4096  11.4096  16.3983  16.3983  22.0546  22.0546  22.2595  22.2595
    23.9341  23.9341  26.5411  26.5411  27.7371  27.7371  31.4905  31.4905

     the Fermi energy is     0.1629 ev

     Writing output data file Si.save

     init_run     :      0.38s CPU      0.43s WALL (       1 calls)
     electrons    :     87.13s CPU     93.67s WALL (       1 calls)

     Called by init_run:
     wfcinit      :      0.00s CPU      0.00s WALL (       1 calls)
     potinit      :      0.06s CPU      0.08s WALL (       1 calls)

     Called by electrons:
     c_bands      :     86.72s CPU     93.26s WALL (       1 calls)
     v_of_rho     :      0.05s CPU      0.06s WALL (       1 calls)

     Called by c_bands:
     init_us_2    :      0.12s CPU      0.13s WALL (      72 calls)
     cegterg      :     77.38s CPU     83.19s WALL (      72 calls)

     Called by *egterg:
     h_psi        :     59.82s CPU     64.38s WALL (    1228 calls)
     g_psi        :      0.16s CPU      0.18s WALL (    1084 calls)
     cdiaghg      :      4.51s CPU      4.85s WALL (    1156 calls)

     Called by h_psi:
     add_vuspsi   :      1.71s CPU      1.81s WALL (    1228 calls)

     General routines
     calbec       :      1.97s CPU      2.13s WALL (    1228 calls)
     fft          :      0.03s CPU      0.04s WALL (      11 calls)
     fftw         :     52.75s CPU     56.84s WALL (   36978 calls)
     davcio       :      0.02s CPU      0.10s WALL (      72 calls)

     Parallel routines
     fft_scatter  :      1.40s CPU      1.50s WALL (   36989 calls)

     PWSCF        :  1m30.01s CPU     1m36.76s WALL


   This run was terminated on:  16:53:23  12Feb2023            

=------------------------------------------------------------------------------=
   JOB DONE.
=------------------------------------------------------------------------------=
