
     Program PWSCF v.5.1 starts on 13Feb2023 at 16:18:40 

     This program is part of the open-source Quantum ESPRESSO suite
     for quantum simulation of materials; please cite
         "P. Giannozzi et al., J. Phys.:Condens. Matter 21 395502 (2009);
          URL http://www.quantum-espresso.org", 
     in publications or presentations arising from this work. More details at
     http://www.quantum-espresso.org/quote

     Parallel version (MPI), running on     1 processors
     Waiting for input...
     Reading input from standard input
Warning: card    SI   -0.50    0.00    0.50 ignored
Warning: card    SI   -0.25    0.25    0.75 ignored

     Current dimensions of program PWSCF are:
     Max number of different atomic species (ntypx) = 10
     Max number of k-points (npk) =  40000
     Max angular momentum in pseudopotentials (lmaxx) =  3

     Atomic positions and unit cell read from directory:
     ./out/Si.save/

               file Si.pbe-mt_fhi.UPF: wavefunction(s)  4f renormalized
               file P.pbe-mt_fhi.UPF: wavefunction(s)  4f renormalized

     Subspace diagonalization in iterative solution of the eigenvalue problem:
     a serial algorithm will be used


     G-vector sticks info
     --------------------
     sticks:   dense  smooth     PW     G-vecs:    dense   smooth      PW
     Sum         733     733    211                12939    12939    2109



     bravais-lattice index     =            2
     lattice parameter (alat)  =      10.2623  a.u.
     unit-cell volume          =     270.1967 (a.u.)^3
     number of atoms/cell      =            2
     number of atomic types    =            2
     number of electrons       =        10.00
     number of Kohn-Sham states=           10
     kinetic-energy cutoff     =      50.0000  Ry
     charge density cutoff     =     200.0000  Ry
     Exchange-correlation      = PBE ( 1  4  3  4 0)

     celldm(1)=  10.262347  celldm(2)=   0.000000  celldm(3)=   0.000000
     celldm(4)=   0.000000  celldm(5)=   0.000000  celldm(6)=   0.000000

     crystal axes: (cart. coord. in units of alat)
               a(1) = (  -0.500000   0.000000   0.500000 )  
               a(2) = (   0.000000   0.500000   0.500000 )  
               a(3) = (  -0.500000   0.500000   0.000000 )  

     reciprocal axes: (cart. coord. in units 2 pi/alat)
               b(1) = ( -1.000000 -1.000000  1.000000 )  
               b(2) = (  1.000000  1.000000  1.000000 )  
               b(3) = ( -1.000000  1.000000 -1.000000 )  


     PseudoPot. # 1 for Si read from file:
     /home/acedemo/psudo/Si.pbe-mt_fhi.UPF
     MD5 check sum: 259057c2adf9952f9ced37ae3d9e311d
     Pseudo is Norm-conserving, Zval =  4.0
     Generated using FHI98PP, converted with fhi2upf.x v.5.0.2
     Using radial grid of  495 points,  3 beta functions with: 
                l(1) =   0
                l(2) =   1
                l(3) =   3

     PseudoPot. # 2 for  P read from file:
     /home/acedemo/psudo/P.pbe-mt_fhi.UPF
     MD5 check sum: 7191c457fb61afa58d0f00d0e4a443c1
     Pseudo is Norm-conserving, Zval =  5.0
     Generated using FHI98PP, converted with fhi2upf.x v.5.0.2
     Using radial grid of  499 points,  3 beta functions with: 
                l(1) =   0
                l(2) =   1
                l(3) =   3

     atomic species   valence    mass     pseudopotential
        Si             4.00    28.08550     Si( 1.00)
        P              5.00    30.97376      P( 1.00)

     48 Sym. Ops., with inversion, found (24 have fractional translation)



   Cartesian axes

     site n.     atom                  positions (alat units)
         1           P   tau(   1) = (   0.0000000   0.0000000   0.0000000  )
         2           P   tau(   2) = (   0.2500000   0.2500000   0.2500000  )

     number of k points=    51  Marzari-Vanderbilt smearing, width (Ry)=  0.0500
                       cart. coord. in units 2pi/alat
        k(    1) = (   0.5000000   0.5000000   0.5000000), wk =   0.0000000
        k(    2) = (   0.4500000   0.4500000   0.4500000), wk =   0.0014779
        k(    3) = (   0.4000000   0.4000000   0.4000000), wk =   0.0029558
        k(    4) = (   0.3500000   0.3500000   0.3500000), wk =   0.0044337
        k(    5) = (   0.3000000   0.3000000   0.3000000), wk =   0.0059116
        k(    6) = (   0.2500000   0.2500000   0.2500000), wk =   0.0073895
        k(    7) = (   0.2000000   0.2000000   0.2000000), wk =   0.0088674
        k(    8) = (   0.1500000   0.1500000   0.1500000), wk =   0.0103453
        k(    9) = (   0.1000000   0.1000000   0.1000000), wk =   0.0118232
        k(   10) = (   0.0500000   0.0500000   0.0500000), wk =   0.0133011
        k(   11) = (   0.0000000   0.0000000   0.0000000), wk =   0.0147790
        k(   12) = (   0.0000000   0.1000000   0.0000000), wk =   0.0168691
        k(   13) = (   0.0000000   0.2000000   0.0000000), wk =   0.0189591
        k(   14) = (   0.0000000   0.3000000   0.0000000), wk =   0.0210492
        k(   15) = (   0.0000000   0.4000000   0.0000000), wk =   0.0231392
        k(   16) = (   0.0000000   0.5000000   0.0000000), wk =   0.0252293
        k(   17) = (   0.0000000   0.6000000   0.0000000), wk =   0.0273194
        k(   18) = (   0.0000000   0.7000000   0.0000000), wk =   0.0294094
        k(   19) = (   0.0000000   0.8000000   0.0000000), wk =   0.0314995
        k(   20) = (   0.0000000   0.9000000   0.0000000), wk =   0.0335896
        k(   21) = (   0.0000000   1.0000000   0.0000000), wk =   0.0356796
        k(   22) = (   0.0000000   0.9750000   0.0750000), wk =   0.0370621
        k(   23) = (   0.0000000   0.9500000   0.1500000), wk =   0.0384445
        k(   24) = (  -0.0000000   0.9250000   0.2250000), wk =   0.0398270
        k(   25) = (  -0.0000000   0.9000000   0.3000000), wk =   0.0412094
        k(   26) = (   0.0000000   0.8750000   0.3750000), wk =   0.0425919
        k(   27) = (   0.0000000   0.8500000   0.4500000), wk =   0.0439743
        k(   28) = (   0.0000000   0.8250000   0.5250000), wk =   0.0453568
        k(   29) = (  -0.0000000   0.8000000   0.6000000), wk =   0.0467392
        k(   30) = (  -0.0000000   0.7750000   0.6750000), wk =   0.0481217
        k(   31) = (   0.0000000   0.7500000   0.7500000), wk =   0.0495041
        k(   32) = (   0.0000000   0.7250000   0.7750000), wk =   0.0500266
        k(   33) = (   0.0000000   0.7000000   0.8000000), wk =   0.0505491
        k(   34) = (   0.0000000   0.6750000   0.8250000), wk =   0.0510717
        k(   35) = (   0.0000000   0.6500000   0.8500000), wk =   0.0515942
        k(   36) = (   0.0000000   0.6250000   0.8750000), wk =   0.0521167
        k(   37) = (   0.0000000   0.6000000   0.9000000), wk =   0.0526392
        k(   38) = (   0.0000000   0.5750000   0.9250000), wk =   0.0531617
        k(   39) = (   0.0000000   0.5500000   0.9500000), wk =   0.0536842
        k(   40) = (   0.0000000   0.5250000   0.9750000), wk =   0.0542067
        k(   41) = (   0.0000000   0.5000000   1.0000000), wk =   0.0547293
        k(   42) = (   0.0000000   0.4500000   0.9000000), wk =   0.0574942
        k(   43) = (  -0.0000000   0.4000000   0.8000000), wk =   0.0602591
        k(   44) = (  -0.0000000   0.3500000   0.7000000), wk =   0.0630239
        k(   45) = (  -0.0000000   0.3000000   0.6000000), wk =   0.0657888
        k(   46) = (   0.0000000   0.2500000   0.5000000), wk =   0.0685537
        k(   47) = (   0.0000000   0.2000000   0.4000000), wk =   0.0713186
        k(   48) = (   0.0000000   0.1500000   0.3000000), wk =   0.0740835
        k(   49) = (  -0.0000000   0.1000000   0.2000000), wk =   0.0768484
        k(   50) = (  -0.0000000   0.0500000   0.1000000), wk =   0.0796133
        k(   51) = (   0.0000000   0.0000000   0.0000000), wk =   0.0823782

     Dense  grid:    12939 G-vectors     FFT dimensions: (  36,  36,  36)

     Largest allocated arrays     est. size (Mb)     dimensions
        Kohn-Sham Wavefunctions         0.25 Mb     (    1639,   10)
        NL pseudopotentials             0.55 Mb     (    1639,   22)
        Each V/rho on FFT grid          0.71 Mb     (   46656)
        Each G-vector array             0.10 Mb     (   12939)
        G-vector shells                 0.00 Mb     (     180)
     Largest temporary arrays     est. size (Mb)     dimensions
        Auxiliary wavefunctions         1.00 Mb     (    1639,   40)
        Each subspace H/S matrix        0.02 Mb     (      40,   40)
        Each <psi_i|beta_j> matrix      0.00 Mb     (      22,   10)

     The potential is recalculated from file :
     ./out/Si.save/charge-density.dat

     Starting wfc are   32 randomized atomic wfcs

     Band Structure Calculation
     Davidson diagonalization with overlap

     ethr =  1.60E-11,  avg # of iterations = 20.6

     total cpu time spent up to now is       33.2 secs

     End of band structure calculation

          k = 0.5000 0.5000 0.5000 (  1622 PWs)   bands (ev):

    -6.1043  -2.8378   3.0309   3.0309   4.8572   8.5191   8.5191  13.0175
    15.4808  15.7515

          k = 0.4500 0.4500 0.4500 (  1610 PWs)   bands (ev):

    -6.1960  -2.6901   3.0488   3.0488   4.8771   8.5161   8.5161  12.8476
    14.9358  15.4977

          k = 0.4000 0.4000 0.4000 (  1616 PWs)   bands (ev):

    -6.4294  -2.2902   3.1021   3.1021   4.9355   8.5013   8.5013  12.3222
    14.6154  14.7341

          k = 0.3500 0.3500 0.3500 (  1610 PWs)   bands (ev):

    -6.7275  -1.7162   3.1893   3.1893   5.0283   8.4582   8.4582  11.5488
    14.1128  14.1128

          k = 0.3000 0.3000 0.3000 (  1615 PWs)   bands (ev):

    -7.0347  -1.0269   3.3078   3.3078   5.1471   8.3650   8.3650  10.6810
    13.6667  13.6667

          k = 0.2500 0.2500 0.2500 (  1618 PWs)   bands (ev):

    -7.3198  -0.2582   3.4527   3.4527   5.2756   8.2061   8.2061   9.7995
    13.4165  13.4165

          k = 0.2000 0.2000 0.2000 (  1606 PWs)   bands (ev):

    -7.5658   0.5667   3.6161   3.6161   5.3819   7.9861   7.9861   8.9517
    13.3587  13.3587

          k = 0.1500 0.1500 0.1500 (  1600 PWs)   bands (ev):

    -7.7636   1.4292   3.7848   3.7848   5.4008   7.7347   7.7347   8.1969
    13.4594  13.4594

          k = 0.1000 0.1000 0.1000 (  1606 PWs)   bands (ev):

    -7.9079   2.3103   3.9387   3.9387   5.2172   7.4978   7.4978   7.6343
    13.6560  13.6560

          k = 0.0500 0.0500 0.0500 (  1630 PWs)   bands (ev):

    -7.9955   3.1851   4.0501   4.0501   4.7389   7.3266   7.3266   7.3417
    13.3432  13.8559

          k = 0.0000 0.0000 0.0000 (  1639 PWs)   bands (ev):

    -8.0249   3.9497   4.0915   4.0915   4.0915   7.2637   7.2637   7.2637
    13.2216  13.9435

          k = 0.0000 0.1000 0.0000 (  1627 PWs)   bands (ev):

    -7.9857   3.0983   3.9717   3.9717   4.9323   7.1853   7.4310   7.4310
    13.3839  13.6701

          k = 0.0000 0.2000 0.0000 (  1599 PWs)   bands (ev):

    -7.8684   2.1851   3.6743   3.6743   5.7984   6.9780   7.8703   7.8703
    13.0556  13.8405

          k = 0.0000 0.3000 0.0000 (  1607 PWs)   bands (ev):

    -7.6741   1.2839   3.3027   3.3027   6.5626   6.7020   8.4765   8.4765
    12.4179  14.3674

          k = 0.0000 0.4000 0.0000 (  1607 PWs)   bands (ev):

    -7.4038   0.3999   2.9249   2.9249   6.4148   7.1142   9.1786   9.1786
    12.0035  14.6963

          k = 0.0000 0.5000 0.0000 (  1612 PWs)   bands (ev):

    -7.0599  -0.4635   2.5764   2.5764   6.1579   7.3261   9.9363   9.9363
    12.0008  15.1184

          k = 0.0000 0.6000 0.0000 (  1620 PWs)   bands (ev):

    -6.6449  -1.3038   2.2763   2.2763   5.9583   7.2006  10.7231  10.7231
    12.4342  15.6330

          k = 0.0000 0.7000 0.0000 (  1632 PWs)   bands (ev):

    -6.1623  -2.1176   2.0352   2.0352   5.8334   6.8913  11.5121  11.5121
    13.1595  16.2389

          k = 0.0000 0.8000 0.0000 (  1624 PWs)   bands (ev):

    -5.6161  -2.9005   1.8594   1.8594   5.7943   6.5420  12.2589  12.2589
    14.0312  16.9351

          k = 0.0000 0.9000 0.0000 (  1608 PWs)   bands (ev):

    -5.0112  -3.6476   1.7526   1.7526   5.8474   6.2310  12.8625  12.8625
    14.9588  16.7092

          k = 0.0000 1.0000 0.0000 (  1604 PWs)   bands (ev):

    -4.3531  -4.3531   1.7168   1.7168   5.9944   5.9944  13.1157  13.1157
    15.8775  15.8775

          k = 0.0000 0.9750 0.0750 (  1618 PWs)   bands (ev):

    -4.5176  -4.1792   1.6760   1.6814   6.0500   6.1431  12.9551  13.0076
    15.4813  15.7213

          k = 0.0000 0.9500 0.1500 (  1622 PWs)   bands (ev):

    -4.6649  -4.0057   1.5594   1.5998   6.3032   6.4715  12.4144  12.7502
    15.2094  15.2424

          k =-0.0000 0.9250 0.2250 (  1622 PWs)   bands (ev):

    -4.7894  -3.8451   1.3928   1.5161   6.7225   6.9384  11.5932  12.3959
    14.7402  15.1509

          k =-0.0000 0.9000 0.3000 (  1623 PWs)   bands (ev):

    -4.8877  -3.7113   1.2086   1.4708   7.2688   7.4959  10.6754  11.9689
    14.2727  15.1605

          k = 0.0000 0.8750 0.3750 (  1614 PWs)   bands (ev):

    -4.9571  -3.6161   1.0335   1.4909   7.9073   8.0588   9.8168  11.4913
    13.8509  15.1342

          k = 0.0000 0.8500 0.4500 (  1612 PWs)   bands (ev):

    -4.9964  -3.5672   0.8858   1.5856   8.2241   8.6049   9.4484  10.9925
    13.4700  15.0236

          k = 0.0000 0.8250 0.5250 (  1611 PWs)   bands (ev):

    -5.0046  -3.5650   0.7775   1.7423   7.6503   9.3040   9.9239  10.5293
    13.1229  14.8352

          k =-0.0000 0.8000 0.6000 (  1614 PWs)   bands (ev):

    -4.9811  -3.6046   0.7159   1.9230   7.0006   9.6415  10.4565  10.5821
    12.8121  14.6281

          k =-0.0000 0.7750 0.6750 (  1621 PWs)   bands (ev):

    -4.9257  -3.6785   0.7050   2.0609   6.5152   9.2996  11.0516  11.1665
    12.5733  14.5085

          k = 0.0000 0.7500 0.7500 (  1624 PWs)   bands (ev):

    -4.8378  -3.7802   0.7461   2.0747   6.3020   8.8632  11.5214  11.5341
    12.5977  14.6116

          k = 0.0000 0.7250 0.7750 (  1616 PWs)   bands (ev):

    -4.8323  -3.7846   0.7499   2.0526   6.3426   8.8656  11.4637  11.4812
    12.6690  14.6443

          k = 0.0000 0.7000 0.8000 (  1621 PWs)   bands (ev):

    -4.8157  -3.7981   0.7612   1.9896   6.4613   8.8727  11.2914  11.3668
    12.8437  14.7343

          k = 0.0000 0.6750 0.8250 (  1620 PWs)   bands (ev):

    -4.7881  -3.8210   0.7800   1.8938   6.6498   8.8838  11.0724  11.1933
    13.0674  14.8606

          k = 0.0000 0.6500 0.8500 (  1616 PWs)   bands (ev):

    -4.7495  -3.8537   0.8062   1.7761   6.8972   8.8980  10.8362  10.9780
    13.3109  14.9944

          k = 0.0000 0.6250 0.8750 (  1616 PWs)   bands (ev):

    -4.6999  -3.8970   0.8395   1.6473   7.1922   8.9136  10.5973  10.7361
    13.5612  15.1036

          k = 0.0000 0.6000 0.9000 (  1613 PWs)   bands (ev):

    -4.6394  -3.9514   0.8799   1.5166   7.5238   8.9274  10.3649  10.4801
    13.8110  15.1573

          k = 0.0000 0.5750 0.9250 (  1615 PWs)   bands (ev):

    -4.5681  -4.0175   0.9269   1.3920   7.8808   8.9344  10.1479  10.2214
    14.0556  15.1364

          k = 0.0000 0.5500 0.9500 (  1615 PWs)   bands (ev):

    -4.4859  -4.0958   0.9803   1.2791   8.2477   8.9256   9.9572   9.9745
    14.2911  15.0435

          k = 0.0000 0.5250 0.9750 (  1615 PWs)   bands (ev):

    -4.3929  -4.1865   1.0397   1.1824   8.5908   8.8882   9.7718   9.8072
    14.5131  14.8965

          k = 0.0000 0.5000 1.0000 (  1628 PWs)   bands (ev):

    -4.2894  -4.2894   1.1047   1.1047   8.8100   8.8100   9.7113   9.7113
    14.7160  14.7160

          k = 0.0000 0.4500 0.9000 (  1616 PWs)   bands (ev):

    -4.7649  -3.8093   0.9352   1.4058   8.4247   8.6012   9.5032  10.6408
    13.8873  15.1541

          k =-0.0000 0.4000 0.8000 (  1616 PWs)   bands (ev):

    -5.2970  -3.2404   0.9646   1.7567   8.0754   8.1418   9.4106  11.6015
    13.3890  14.7532

          k =-0.0000 0.3500 0.7000 (  1618 PWs)   bands (ev):

    -5.8453  -2.5839   1.1689   2.1366   7.7424   7.7593   9.4233  11.3380
    14.0367  14.1831

          k =-0.0000 0.3000 0.6000 (  1609 PWs)   bands (ev):

    -6.3724  -1.8413   1.5146   2.5234   7.4351   7.4562   9.5145  10.5617
    13.3271  15.3389

          k = 0.0000 0.2500 0.5000 (  1610 PWs)   bands (ev):

    -6.8507  -1.0157   1.9669   2.8980   7.1350   7.2278   9.5935   9.7630
    12.7218  15.2014

          k = 0.0000 0.2000 0.4000 (  1613 PWs)   bands (ev):

    -7.2608  -0.1115   2.4892   3.2469   6.7649   7.1205   9.0191   9.4298
    12.3994  14.4828

          k = 0.0000 0.1500 0.3000 (  1607 PWs)   bands (ev):

    -7.5900   0.8639   3.0372   3.5612   6.3166   7.1046   8.3569   8.8440
    12.5655  14.1127

          k =-0.0000 0.1000 0.2000 (  1600 PWs)   bands (ev):

    -7.8300   1.8972   3.5505   3.8279   5.7440   7.1562   7.8042   8.0747
    13.0845  13.9691

          k =-0.0000 0.0500 0.1000 (  1623 PWs)   bands (ev):

    -7.9759   2.9635   3.9401   4.0193   4.9799   7.2292   7.4119   7.4788
    13.4228  13.6647

          k = 0.0000 0.0000 0.0000 (  1639 PWs)   bands (ev):

    -8.0249   3.9497   4.0915   4.0915   4.0915   7.2637   7.2637   7.2637
    13.2216  13.9435

     Writing output data file Si.save

     init_run     :      0.31s CPU      0.32s WALL (       1 calls)
     electrons    :     29.71s CPU     31.02s WALL (       1 calls)

     Called by init_run:
     wfcinit      :      0.00s CPU      0.00s WALL (       1 calls)
     potinit      :      0.06s CPU      0.07s WALL (       1 calls)

     Called by electrons:
     c_bands      :     29.71s CPU     31.02s WALL (       1 calls)
     v_of_rho     :      0.05s CPU      0.06s WALL (       1 calls)

     Called by c_bands:
     init_us_2    :      0.11s CPU      0.11s WALL (      51 calls)
     cegterg      :     23.39s CPU     24.47s WALL (      67 calls)

     Called by *egterg:
     h_psi        :     24.84s CPU     25.99s WALL (    1167 calls)
     g_psi        :      0.06s CPU      0.06s WALL (    1049 calls)
     cdiaghg      :      0.52s CPU      0.53s WALL (    1100 calls)

     Called by h_psi:
     add_vuspsi   :      0.72s CPU      0.75s WALL (    1167 calls)

     General routines
     calbec       :      0.80s CPU      0.85s WALL (    1167 calls)
     fft          :      0.02s CPU      0.03s WALL (      10 calls)
     fftw         :     22.01s CPU     23.04s WALL (   15896 calls)
     davcio       :      0.00s CPU      0.01s WALL (      51 calls)

     Parallel routines
     fft_scatter  :      0.55s CPU      0.57s WALL (   15906 calls)

     PWSCF        :    31.75s CPU        33.37s WALL


   This run was terminated on:  16:19:13  13Feb2023            

=------------------------------------------------------------------------------=
   JOB DONE.
=------------------------------------------------------------------------------=
