
     Program PWSCF v.5.1 starts on 13Feb2023 at 16:17:42 

     This program is part of the open-source Quantum ESPRESSO suite
     for quantum simulation of materials; please cite
         "P. Giannozzi et al., J. Phys.:Condens. Matter 21 395502 (2009);
          URL http://www.quantum-espresso.org", 
     in publications or presentations arising from this work. More details at
     http://www.quantum-espresso.org/quote

     Parallel version (MPI), running on     1 processors
     Waiting for input...
     Reading input from standard input
Warning: card    SI   -0.50    0.00    0.50 ignored
Warning: card    SI   -0.25    0.25    0.75 ignored

     Current dimensions of program PWSCF are:
     Max number of different atomic species (ntypx) = 10
     Max number of k-points (npk) =  40000
     Max angular momentum in pseudopotentials (lmaxx) =  3

     Atomic positions and unit cell read from directory:
     ./out/Si.save/

               file Si.pbe-mt_fhi.UPF: wavefunction(s)  4f renormalized
               file P.pbe-mt_fhi.UPF: wavefunction(s)  4f renormalized

     Subspace diagonalization in iterative solution of the eigenvalue problem:
     a serial algorithm will be used


     G-vector sticks info
     --------------------
     sticks:   dense  smooth     PW     G-vecs:    dense   smooth      PW
     Sum         733     733    223                12939    12939    2229



     bravais-lattice index     =            2
     lattice parameter (alat)  =      10.2623  a.u.
     unit-cell volume          =     270.1967 (a.u.)^3
     number of atoms/cell      =            2
     number of atomic types    =            2
     number of electrons       =        10.00
     number of Kohn-Sham states=           12
     kinetic-energy cutoff     =      50.0000  Ry
     charge density cutoff     =     200.0000  Ry
     Exchange-correlation      = PBE ( 1  4  3  4 0)

     celldm(1)=  10.262347  celldm(2)=   0.000000  celldm(3)=   0.000000
     celldm(4)=   0.000000  celldm(5)=   0.000000  celldm(6)=   0.000000

     crystal axes: (cart. coord. in units of alat)
               a(1) = (  -0.500000   0.000000   0.500000 )  
               a(2) = (   0.000000   0.500000   0.500000 )  
               a(3) = (  -0.500000   0.500000   0.000000 )  

     reciprocal axes: (cart. coord. in units 2 pi/alat)
               b(1) = ( -1.000000 -1.000000  1.000000 )  
               b(2) = (  1.000000  1.000000  1.000000 )  
               b(3) = ( -1.000000  1.000000 -1.000000 )  


     PseudoPot. # 1 for Si read from file:
     /home/acedemo/psudo/Si.pbe-mt_fhi.UPF
     MD5 check sum: 259057c2adf9952f9ced37ae3d9e311d
     Pseudo is Norm-conserving, Zval =  4.0
     Generated using FHI98PP, converted with fhi2upf.x v.5.0.2
     Using radial grid of  495 points,  3 beta functions with: 
                l(1) =   0
                l(2) =   1
                l(3) =   3

     PseudoPot. # 2 for  P read from file:
     /home/acedemo/psudo/P.pbe-mt_fhi.UPF
     MD5 check sum: 7191c457fb61afa58d0f00d0e4a443c1
     Pseudo is Norm-conserving, Zval =  5.0
     Generated using FHI98PP, converted with fhi2upf.x v.5.0.2
     Using radial grid of  499 points,  3 beta functions with: 
                l(1) =   0
                l(2) =   1
                l(3) =   3

     atomic species   valence    mass     pseudopotential
        Si             4.00    28.08550     Si( 1.00)
        P              5.00    30.97376      P( 1.00)

     48 Sym. Ops., with inversion, found (24 have fractional translation)



   Cartesian axes

     site n.     atom                  positions (alat units)
         1           P   tau(   1) = (   0.0000000   0.0000000   0.0000000  )
         2           P   tau(   2) = (   0.2500000   0.2500000   0.2500000  )

     number of k points=    72 (tetrahedron method)
                       cart. coord. in units 2pi/alat
        k(    1) = (   0.0000000   0.0000000   0.0000000), wk =   0.0011574
        k(    2) = (  -0.0833333   0.0833333  -0.0833333), wk =   0.0092593
        k(    3) = (  -0.1666667   0.1666667  -0.1666667), wk =   0.0092593
        k(    4) = (  -0.2500000   0.2500000  -0.2500000), wk =   0.0092593
        k(    5) = (  -0.3333333   0.3333333  -0.3333333), wk =   0.0092593
        k(    6) = (  -0.4166667   0.4166667  -0.4166667), wk =   0.0092593
        k(    7) = (   0.5000000  -0.5000000   0.5000000), wk =   0.0046296
        k(    8) = (   0.0000000   0.1666667   0.0000000), wk =   0.0069444
        k(    9) = (  -0.0833333   0.2500000  -0.0833333), wk =   0.0277778
        k(   10) = (  -0.1666667   0.3333333  -0.1666667), wk =   0.0277778
        k(   11) = (  -0.2500000   0.4166667  -0.2500000), wk =   0.0277778
        k(   12) = (  -0.3333333   0.5000000  -0.3333333), wk =   0.0277778
        k(   13) = (   0.5833333  -0.4166667   0.5833333), wk =   0.0277778
        k(   14) = (   0.5000000  -0.3333333   0.5000000), wk =   0.0277778
        k(   15) = (   0.4166667  -0.2500000   0.4166667), wk =   0.0277778
        k(   16) = (   0.3333333  -0.1666667   0.3333333), wk =   0.0277778
        k(   17) = (   0.2500000  -0.0833333   0.2500000), wk =   0.0277778
        k(   18) = (   0.1666667  -0.0000000   0.1666667), wk =   0.0138889
        k(   19) = (   0.0000000   0.3333333   0.0000000), wk =   0.0069444
        k(   20) = (  -0.0833333   0.4166667  -0.0833333), wk =   0.0277778
        k(   21) = (  -0.1666667   0.5000000  -0.1666667), wk =   0.0277778
        k(   22) = (  -0.2500000   0.5833333  -0.2500000), wk =   0.0277778
        k(   23) = (   0.6666667  -0.3333333   0.6666667), wk =   0.0277778
        k(   24) = (   0.5833333  -0.2500000   0.5833333), wk =   0.0277778
        k(   25) = (   0.5000000  -0.1666667   0.5000000), wk =   0.0277778
        k(   26) = (   0.4166667  -0.0833333   0.4166667), wk =   0.0277778
        k(   27) = (   0.3333333   0.0000000   0.3333333), wk =   0.0138889
        k(   28) = (   0.0000000   0.5000000   0.0000000), wk =   0.0069444
        k(   29) = (  -0.0833333   0.5833333  -0.0833333), wk =   0.0277778
        k(   30) = (  -0.1666667   0.6666667  -0.1666667), wk =   0.0277778
        k(   31) = (   0.7500000  -0.2500000   0.7500000), wk =   0.0277778
        k(   32) = (   0.6666667  -0.1666667   0.6666667), wk =   0.0277778
        k(   33) = (   0.5833333  -0.0833333   0.5833333), wk =   0.0277778
        k(   34) = (   0.5000000   0.0000000   0.5000000), wk =   0.0138889
        k(   35) = (   0.0000000   0.6666667   0.0000000), wk =   0.0069444
        k(   36) = (  -0.0833333   0.7500000  -0.0833333), wk =   0.0277778
        k(   37) = (   0.8333333  -0.1666667   0.8333333), wk =   0.0277778
        k(   38) = (   0.7500000  -0.0833333   0.7500000), wk =   0.0277778
        k(   39) = (   0.6666667   0.0000000   0.6666667), wk =   0.0138889
        k(   40) = (   0.0000000   0.8333333   0.0000000), wk =   0.0069444
        k(   41) = (   0.9166667  -0.0833333   0.9166667), wk =   0.0277778
        k(   42) = (   0.8333333   0.0000000   0.8333333), wk =   0.0138889
        k(   43) = (   0.0000000  -1.0000000   0.0000000), wk =   0.0034722
        k(   44) = (  -0.1666667   0.3333333   0.0000000), wk =   0.0277778
        k(   45) = (  -0.2500000   0.4166667  -0.0833333), wk =   0.0555556
        k(   46) = (  -0.3333333   0.5000000  -0.1666667), wk =   0.0555556
        k(   47) = (   0.5833333  -0.4166667   0.7500000), wk =   0.0555556
        k(   48) = (   0.5000000  -0.3333333   0.6666667), wk =   0.0277778
        k(   49) = (  -0.1666667   0.5000000   0.0000000), wk =   0.0277778
        k(   50) = (  -0.2500000   0.5833333  -0.0833333), wk =   0.0555556
        k(   51) = (   0.6666667  -0.3333333   0.8333333), wk =   0.0555556
        k(   52) = (   0.5833333  -0.2500000   0.7500000), wk =   0.0555556
        k(   53) = (   0.5000000  -0.1666667   0.6666667), wk =   0.0555556
        k(   54) = (   0.4166667  -0.0833333   0.5833333), wk =   0.0555556
        k(   55) = (   0.3333333   0.0000000   0.5000000), wk =   0.0277778
        k(   56) = (  -0.1666667   0.6666667  -0.0000000), wk =   0.0277778
        k(   57) = (   0.7500000  -0.2500000   0.9166667), wk =   0.0555556
        k(   58) = (   0.6666667  -0.1666667   0.8333333), wk =   0.0555556
        k(   59) = (   0.5833333  -0.0833333   0.7500000), wk =   0.0555556
        k(   60) = (   0.5000000   0.0000000   0.6666667), wk =   0.0277778
        k(   61) = (   0.8333333  -0.1666667   1.0000000), wk =   0.0277778
        k(   62) = (   0.7500000  -0.0833333   0.9166667), wk =   0.0555556
        k(   63) = (   0.6666667   0.0000000   0.8333333), wk =   0.0277778
        k(   64) = (  -0.1666667  -1.0000000   0.0000000), wk =   0.0138889
        k(   65) = (   0.6666667  -0.3333333   1.0000000), wk =   0.0277778
        k(   66) = (   0.5833333  -0.2500000   0.9166667), wk =   0.0555556
        k(   67) = (   0.5000000  -0.1666667   0.8333333), wk =   0.0277778
        k(   68) = (   0.6666667  -0.1666667   1.0000000), wk =   0.0277778
        k(   69) = (   0.5833333  -0.0833333   0.9166667), wk =   0.0555556
        k(   70) = (   0.5000000   0.0000000   0.8333333), wk =   0.0277778
        k(   71) = (  -0.3333333  -1.0000000   0.0000000), wk =   0.0138889
        k(   72) = (  -0.5000000  -1.0000000   0.0000000), wk =   0.0069444

     Dense  grid:    12939 G-vectors     FFT dimensions: (  36,  36,  36)

     Largest allocated arrays     est. size (Mb)     dimensions
        Kohn-Sham Wavefunctions         0.30 Mb     (    1639,   12)
        NL pseudopotentials             0.55 Mb     (    1639,   22)
        Each V/rho on FFT grid          0.71 Mb     (   46656)
        Each G-vector array             0.10 Mb     (   12939)
        G-vector shells                 0.00 Mb     (     180)
     Largest temporary arrays     est. size (Mb)     dimensions
        Auxiliary wavefunctions         1.20 Mb     (    1639,   48)
        Each subspace H/S matrix        0.04 Mb     (      48,   48)
        Each <psi_i|beta_j> matrix      0.00 Mb     (      22,   12)

     The potential is recalculated from file :
     ./out/Si.save/charge-density.dat

     Starting wfc are   32 randomized atomic wfcs

     Band Structure Calculation
     Davidson diagonalization with overlap

     ethr =  1.60E-11,  avg # of iterations = 21.2

     total cpu time spent up to now is       48.6 secs

     End of band structure calculation

          k = 0.0000 0.0000 0.0000 (  1639 PWs)   bands (ev):

    -8.0249   3.9497   4.0915   4.0915   4.0915   7.2637   7.2637   7.2637
    13.2216  13.9435  13.9435  17.4450

          k =-0.0833 0.0833-0.0833 (  1612 PWs)   bands (ev):

    -7.9435   2.6042   3.9820   3.9820   5.0908   7.4310   7.4310   7.5068
    13.5482  13.7278  13.7278  17.1768

          k =-0.1667 0.1667-0.1667 (  1591 PWs)   bands (ev):

    -7.7034   1.1387   3.7291   3.7291   5.4104   7.8193   7.8193   8.4329
    13.4115  13.4115  14.2979  16.8057

          k =-0.2500 0.2500-0.2500 (  1618 PWs)   bands (ev):

    -7.3198  -0.2582   3.4527   3.4527   5.2756   8.2061   8.2061   9.7995
    13.4165  13.4165  14.7057  17.1921

          k =-0.3333 0.3333-0.3333 (  1616 PWs)   bands (ev):

    -6.8309  -1.4971   3.2255   3.2255   5.0656   8.4338   8.4338  11.2648
    13.9433  13.9433  14.5935  17.9332

          k =-0.4167 0.4167-0.4167 (  1616 PWs)   bands (ev):

    -6.3408  -2.4466   3.0804   3.0804   4.9118   8.5084   8.5084  12.5337
    14.6838  14.9747  14.9747  17.0659

          k = 0.5000-0.5000 0.5000 (  1622 PWs)   bands (ev):

    -6.1043  -2.8378   3.0309   3.0309   4.8572   8.5191   8.5191  13.0175
    15.4808  15.7515  16.2573  16.2573

          k = 0.0000 0.1667 0.0000 (  1615 PWs)   bands (ev):

    -7.9162   2.4884   3.7863   3.7863   5.5170   7.0579   7.7006   7.7006
    13.2770  13.6595  14.0744  17.6426

          k =-0.0833 0.2500-0.0833 (  1599 PWs)   bands (ev):

    -7.7282   1.3924   3.4929   3.5488   6.0073   7.1138   8.1597   8.3629
    12.8020  14.0444  14.3033  17.3017

          k =-0.1667 0.3333-0.1667 (  1610 PWs)   bands (ev):

    -7.3901   0.0851   3.2136   3.2376   5.9685   7.5745   8.5949   9.3940
    12.7064  14.0498  14.9612  17.2572

          k =-0.2500 0.4167-0.2500 (  1606 PWs)   bands (ev):

    -6.9294  -1.1614   2.9102   3.0086   5.7652   8.0360   8.8373  10.4917
    13.2472  14.4787  14.9838  17.9239

          k =-0.3333 0.5000-0.3333 (  1616 PWs)   bands (ev):

    -6.4197  -2.2021   2.6424   2.9037   5.5862   8.2999   8.8706  11.6233
    14.3202  14.8190  15.4110  17.3560

          k = 0.5833-0.4167 0.5833 (  1615 PWs)   bands (ev):

    -6.0589  -2.8088   2.4709   2.9065   5.4891   8.4376   8.7936  12.6120
    14.5553  15.8664  16.1007  16.2294

          k = 0.5000-0.3333 0.5000 (  1616 PWs)   bands (ev):

    -6.1435  -2.6739   2.4135   3.0137   5.4917   8.5415   8.6783  12.5250
    14.6192  14.6569  16.1460  16.5761

          k = 0.4167-0.2500 0.4167 (  1611 PWs)   bands (ev):

    -6.5885  -1.8854   2.4797   3.2126   5.5899   8.5127   8.5958  11.4112
    13.5431  14.7733  15.2698  17.4152

          k = 0.3333-0.1667 0.3333 (  1605 PWs)   bands (ev):

    -7.0951  -0.7611   2.6749   3.4780   5.7506   8.2299   8.4608  10.1773
    12.9220  14.2185  15.0646  17.6578

          k = 0.2500-0.0833 0.2500 (  1600 PWs)   bands (ev):

    -7.5194   0.5073   3.0029   3.7605   5.8655   7.8345   8.0011   9.1066
    12.8450  13.7973  14.7861  17.1763

          k = 0.1667-0.0000 0.1667 (  1592 PWs)   bands (ev):

    -7.8089   1.7442   3.4738   3.9674   5.6386   7.4956   7.5374   8.1980
    13.1937  13.7949  14.0332  17.3086

          k = 0.0000 0.3333 0.0000 (  1607 PWs)   bands (ev):

    -7.5923   0.9871   3.1752   3.1752   6.6051   6.7770   8.7023   8.7023
    12.2440  14.4666  14.7837  18.1990

          k =-0.0833 0.4167-0.0833 (  1616 PWs)   bands (ev):

    -7.3023   0.0583   2.8221   2.8840   6.5759   7.0936   9.2403   9.3667
    12.1682  14.6659  15.5053  18.0579

          k =-0.1667 0.5000-0.1667 (  1611 PWs)   bands (ev):

    -6.8777  -1.0231   2.3883   2.6780   6.5423   7.5828   9.5786   9.8075
    12.9327  15.0590  15.7719  18.3657

          k =-0.2500 0.5833-0.2500 (  1610 PWs)   bands (ev):

    -6.3691  -2.0389   1.9815   2.5832   6.4024   8.1787   9.6473  10.2827
    14.2171  15.3828  15.8996  17.6955

          k = 0.6667-0.3333 0.6667 (  1607 PWs)   bands (ev):

    -5.9202  -2.7741   1.6802   2.6071   6.3040   8.5118   9.5335  11.2245
    14.2439  15.9596  15.9821  17.2165

          k = 0.5833-0.2500 0.5833 (  1602 PWs)   bands (ev):

    -5.8425  -2.8886   1.5221   2.7451   6.2889   8.6908   9.3329  12.1017
    13.4061  14.4963  16.8841  17.3696

          k = 0.5000-0.1667 0.5000 (  1610 PWs)   bands (ev):

    -6.2166  -2.3036   1.5343   2.9801   6.3495   8.8268   9.0560  11.2240
    13.3392  14.2923  16.5994  17.5166

          k = 0.4167-0.0833 0.4167 (  1613 PWs)   bands (ev):

    -6.7288  -1.3691   1.7524   3.2779   6.4290   8.6580   8.7720  10.1798
    12.6741  15.1982  15.4922  17.9797

          k = 0.3333 0.0000 0.3333 (  1604 PWs)   bands (ev):

    -7.1858  -0.3662   2.2328   3.5740   6.3512   8.1829   8.3031   9.6535
    12.5456  14.3679  15.4029  17.7223

          k = 0.0000 0.5000 0.0000 (  1612 PWs)   bands (ev):

    -7.0599  -0.4635   2.5764   2.5764   6.1579   7.3261   9.9363   9.9363
    12.0008  15.1184  16.2208  18.8731

          k =-0.0833 0.5833-0.0833 (  1617 PWs)   bands (ev):

    -6.6756  -1.2699   2.1942   2.3540   6.2261   7.3438  10.2764  10.4601
    12.7336  15.5682  16.6336  18.8589

          k =-0.1667 0.6667-0.1667 (  1620 PWs)   bands (ev):

    -6.1834  -2.1364   1.6786   2.2466   6.4013   7.8147  10.2103  10.6586
    14.1034  16.0187  16.3393  17.6959

          k = 0.7500-0.2500 0.7500 (  1617 PWs)   bands (ev):

    -5.6815  -2.8779   1.2201   2.2644   6.4318   8.7624  10.2436  10.5705
    14.2917  15.9970  16.0657  17.6384

          k = 0.6667-0.1667 0.6667 (  1607 PWs)   bands (ev):

    -5.4537  -3.1763   0.9315   2.4042   6.4900   9.4215  10.3048  10.8983
    12.9009  14.5269  17.4262  18.5772

          k = 0.5833-0.0833 0.5833 (  1611 PWs)   bands (ev):

    -5.7439  -2.7938   0.8797   2.6494   6.6019   9.6311   9.8846  10.9899
    12.7562  13.4020  17.8296  18.8244

          k = 0.5000 0.0000 0.5000 (  1604 PWs)   bands (ev):

    -6.2508  -2.0831   1.1334   2.9638   6.6692   9.2935   9.5045  10.1062
    12.7896  14.2223  16.8047  18.9354

          k = 0.0000 0.6667 0.0000 (  1624 PWs)   bands (ev):

    -6.3303  -1.8496   2.1085   2.1085   5.8660   7.0045  11.2509  11.2509
    12.8956  16.0269  17.3518  18.6274

          k =-0.0833 0.7500-0.0833 (  1618 PWs)   bands (ev):

    -5.8635  -2.5570   1.7530   1.9768   6.0236   6.9330  11.4545  11.7003
    14.0062  16.6313  16.6950  17.7223

          k = 0.8333-0.1667 0.8333 (  1619 PWs)   bands (ev):

    -5.3372  -3.2331   1.2277   1.9728   6.2102   7.6129  11.3105  11.7177
    14.4620  16.1057  16.1606  17.9550

          k = 0.7500-0.0833 0.7500 (  1620 PWs)   bands (ev):

    -4.9946  -3.6178   0.8004   2.0961   6.3200   8.8706  11.1677  11.3853
    12.9887  14.8091  17.3225  19.4570

          k = 0.6667 0.0000 0.6667 (  1612 PWs)   bands (ev):

    -5.2430  -3.3369   0.6458   2.3327   6.4830  10.1725  10.7441  10.8974
    11.8891  13.8531  18.1163  20.4247

          k = 0.0000 0.8333 0.0000 (  1628 PWs)   bands (ev):

    -5.4208  -3.1538   1.8160   1.8160   5.8016   6.4317  12.4838  12.4838
    14.3376  17.1483  17.1869  17.4275

          k = 0.9167-0.0833 0.9167 (  1622 PWs)   bands (ev):

    -4.8892  -3.7713   1.5273   1.7825   6.0137   6.5024  12.5980  12.7040
    14.9146  16.0829  16.4824  18.0732

          k = 0.8333 0.0000 0.8333 (  1614 PWs)   bands (ev):

    -4.5563  -4.0980   1.0744   1.8793   6.1405   7.4878  12.2082  12.2883
    13.6791  15.4583  16.8310  19.2748

          k = 0.0000-1.0000 0.0000 (  1604 PWs)   bands (ev):

    -4.3531  -4.3531   1.7168   1.7168   5.9944   5.9944  13.1157  13.1157
    15.8775  15.8775  16.7418  16.7418

          k =-0.1667 0.3333 0.0000 (  1603 PWs)   bands (ev):

    -7.4898   0.5315   2.8550   3.4609   6.4769   7.1008   8.5671   9.0786
    12.4576  14.2036  14.9791  17.6387

          k =-0.2500 0.4167-0.0833 (  1607 PWs)   bands (ev):

    -7.1080  -0.5561   2.3548   3.2364   6.5112   7.5746   9.0338   9.6986
    12.6105  14.5733  15.4931  17.8442

          k =-0.3333 0.5000-0.1667 (  1604 PWs)   bands (ev):

    -6.6194  -1.6436   2.0323   2.9786   6.3588   8.1029   9.2476  10.4203
    13.3119  15.1759  15.5386  17.7420

          k = 0.5833-0.4167 0.7500 (  1612 PWs)   bands (ev):

    -6.1246  -2.5277   1.8545   2.7895   6.2326   8.3498   9.2825  11.4388
    14.1721  14.7202  16.5569  16.9143

          k = 0.5000-0.3333 0.6667 (  1602 PWs)   bands (ev):

    -5.8817  -2.9044   1.7982   2.7210   6.1864   8.4017   9.2823  12.2556
    13.5745  15.7202  16.1819  16.5837

          k =-0.1667 0.5000 0.0000 (  1617 PWs)   bands (ev):

    -6.9664  -0.7318   2.2617   2.7472   6.6781   7.2709   9.6512   9.8551
    12.4762  15.0852  16.0662  18.4221

          k =-0.2500 0.5833-0.0833 (  1611 PWs)   bands (ev):

    -6.5069  -1.6424   1.7815   2.5302   6.8503   7.6834   9.6468  10.3337
    13.3546  15.7694  15.8714  18.3933

          k = 0.6667-0.3333 0.8333 (  1617 PWs)   bands (ev):

    -5.9916  -2.4968   1.4205   2.3745   6.8076   8.3534   9.8138  10.5688
    14.2492  14.9272  16.9171  17.4624

          k = 0.5833-0.2500 0.7500 (  1607 PWs)   bands (ev):

    -5.6196  -3.0305   1.1921   2.3594   6.7914   8.6108  10.1502  11.0961
    13.0979  15.6654  16.3539  17.7638

          k = 0.5000-0.1667 0.6667 (  1605 PWs)   bands (ev):

    -5.7218  -2.8889   1.1249   2.4889   6.8437   8.6265  10.0564  11.2666
    12.9148  14.4207  17.4804  17.7877

          k = 0.4167-0.0833 0.5833 (  1610 PWs)   bands (ev):

    -6.1851  -2.2020   1.2618   2.7310   6.9332   8.4309   9.7875  10.3893
    13.3116  14.3408  16.8335  18.2915

          k = 0.3333 0.0000 0.5000 (  1606 PWs)   bands (ev):

    -6.6911  -1.3508   1.6600   3.0204   6.9256   7.8871   9.6503   9.7136
    12.7715  15.4665  15.5652  18.3727

          k =-0.1667 0.6667-0.0000 (  1626 PWs)   bands (ev):

    -6.2520  -1.9854   1.8178   2.1448   6.3893   7.2802  10.3641  11.2105
    13.5102  16.2394  16.3327  18.7190

          k = 0.7500-0.2500 0.9167 (  1621 PWs)   bands (ev):

    -5.7384  -2.7265   1.3644   1.9840   6.6859   7.7521  10.1838  11.5695
    14.4374  15.1559  17.0730  17.9220

          k = 0.6667-0.1667 0.8333 (  1616 PWs)   bands (ev):

    -5.2743  -3.3091   0.9604   1.9855   6.7781   8.8455  10.0583  11.4357
    13.3191  15.6108  16.5505  18.7762

          k = 0.5833-0.0833 0.7500 (  1614 PWs)   bands (ev):

    -5.2418  -3.3438   0.7491   2.1396   6.8984   9.5103  10.5710  10.7740
    12.3658  14.4841  17.6367  19.3659

          k = 0.5000 0.0000 0.6667 (  1621 PWs)   bands (ev):

    -5.6749  -2.8269   0.8275   2.4098   7.0282   9.1904  10.0316  10.8861
    12.8337  13.6257  17.9210  19.5766

          k = 0.8333-0.1667 1.0000 (  1617 PWs)   bands (ev):

    -5.3666  -3.1984   1.5705   1.7336   6.3070   6.8354  11.4964  12.3965
    14.7628  15.4708  17.1753  18.0594

          k = 0.7500-0.0833 0.9167 (  1620 PWs)   bands (ev):

    -4.8454  -3.7758   1.1441   1.6978   6.5808   7.5570  11.2896  12.1743
    14.0862  15.4902  16.7934  18.6138

          k = 0.6667 0.0000 0.8333 (  1620 PWs)   bands (ev):

    -4.7765  -3.8308   0.7879   1.8565   6.7263   8.8882  10.9947  11.1254
    13.1472  14.9059  17.3253  19.4483

          k =-0.1667-1.0000 0.0000 (  1622 PWs)   bands (ev):

    -4.3377  -4.3377   1.5402   1.5402   6.4615   6.4615  12.5348  12.5348
    15.1561  15.1561  17.3320  17.3320

          k = 0.6667-0.3333 1.0000 (  1610 PWs)   bands (ev):

    -6.0249  -2.3458   1.2702   2.2658   7.6292   7.6582   9.4474  11.0934
    13.7937  14.5897  17.0347  19.0123

          k = 0.5833-0.2500 0.9167 (  1611 PWs)   bands (ev):

    -5.5138  -3.0177   0.9745   2.0215   7.6024   8.4184   9.6378  11.3573
    13.1502  14.6776  17.4586  18.7383

          k = 0.5000-0.1667 0.8333 (  1610 PWs)   bands (ev):

    -5.2406  -3.3506   0.8810   1.9266   7.5855   8.5874  10.6427  10.6464
    12.5633  15.6026  16.5897  18.9227

          k = 0.6667-0.1667 1.0000 (  1618 PWs)   bands (ev):

    -5.2166  -3.3367   1.1197   1.6316   7.5335   7.8159   9.9330  11.9258
    13.8893  14.9733  17.2947  18.9433

          k = 0.5833-0.0833 0.9167 (  1615 PWs)   bands (ev):

    -4.7985  -3.7836   0.9055   1.5132   7.7587   8.8784   9.7859  10.8416
    13.6499  15.3604  16.9585  18.8245

          k = 0.5000 0.0000 0.8333 (  1612 PWs)   bands (ev):

    -5.0053  -3.5607   0.8087   1.6849   7.8738   9.0786   9.7212  10.6721
    13.2350  14.9040  17.3919  19.2753

          k =-0.3333-1.0000 0.0000 (  1618 PWs)   bands (ev):

    -4.3057  -4.3057   1.2379   1.2379   7.6220   7.6220  11.0527  11.0527
    14.7872  14.7872  17.6124  17.6124

          k =-0.5000-1.0000 0.0000 (  1628 PWs)   bands (ev):

    -4.2894  -4.2894   1.1047   1.1047   8.8100   8.8100   9.7113   9.7113
    14.7160  14.7160  17.6935  17.6935

     the Fermi energy is     7.2559 ev

     Writing output data file Si.save

     init_run     :      0.35s CPU      0.36s WALL (       1 calls)
     electrons    :     46.19s CPU     47.69s WALL (       1 calls)

     Called by init_run:
     wfcinit      :      0.00s CPU      0.00s WALL (       1 calls)
     potinit      :      0.09s CPU      0.09s WALL (       1 calls)

     Called by electrons:
     c_bands      :     46.08s CPU     47.57s WALL (       1 calls)
     v_of_rho     :      0.07s CPU      0.08s WALL (       1 calls)

     Called by c_bands:
     init_us_2    :      0.11s CPU      0.11s WALL (      72 calls)
     cegterg      :     38.07s CPU     39.28s WALL (     110 calls)

     Called by *egterg:
     h_psi        :     37.86s CPU     39.05s WALL (    1708 calls)
     g_psi        :      0.09s CPU      0.10s WALL (    1526 calls)
     cdiaghg      :      1.02s CPU      1.06s WALL (    1598 calls)

     Called by h_psi:
     add_vuspsi   :      1.04s CPU      1.07s WALL (    1708 calls)

     General routines
     calbec       :      1.27s CPU      1.30s WALL (    1708 calls)
     fft          :      0.03s CPU      0.03s WALL (      10 calls)
     fftw         :     33.59s CPU     34.65s WALL (   27034 calls)
     davcio       :      0.00s CPU      0.03s WALL (      72 calls)

     Parallel routines
     fft_scatter  :      0.85s CPU      0.87s WALL (   27044 calls)

     PWSCF        :    48.45s CPU        50.01s WALL


   This run was terminated on:  16:18:32  13Feb2023            

=------------------------------------------------------------------------------=
   JOB DONE.
=------------------------------------------------------------------------------=
