
     Program PWSCF v.5.1 starts on 13Feb2023 at 16:17:11 

     This program is part of the open-source Quantum ESPRESSO suite
     for quantum simulation of materials; please cite
         "P. Giannozzi et al., J. Phys.:Condens. Matter 21 395502 (2009);
          URL http://www.quantum-espresso.org", 
     in publications or presentations arising from this work. More details at
     http://www.quantum-espresso.org/quote

     Parallel version (MPI), running on     1 processors
     Waiting for input...
     Reading input from standard input
Warning: card    SI   -0.50    0.00    0.50 ignored
Warning: card    SI   -0.25    0.25    0.75 ignored

     Current dimensions of program PWSCF are:
     Max number of different atomic species (ntypx) = 10
     Max number of k-points (npk) =  40000
     Max angular momentum in pseudopotentials (lmaxx) =  3
               file Si.pbe-mt_fhi.UPF: wavefunction(s)  4f renormalized
               file P.pbe-mt_fhi.UPF: wavefunction(s)  4f renormalized

     Subspace diagonalization in iterative solution of the eigenvalue problem:
     a serial algorithm will be used


     G-vector sticks info
     --------------------
     sticks:   dense  smooth     PW     G-vecs:    dense   smooth      PW
     Sum         733     733    211                12939    12939    2109



     bravais-lattice index     =            2
     lattice parameter (alat)  =      10.2623  a.u.
     unit-cell volume          =     270.1967 (a.u.)^3
     number of atoms/cell      =            2
     number of atomic types    =            2
     number of electrons       =        10.00
     number of Kohn-Sham states=           12
     kinetic-energy cutoff     =      50.0000  Ry
     charge density cutoff     =     200.0000  Ry
     convergence threshold     =      1.6E-09
     mixing beta               =       0.3000
     number of iterations used =            8  plain     mixing
     Exchange-correlation      = PBE ( 1  4  3  4 0)

     celldm(1)=  10.262347  celldm(2)=   0.000000  celldm(3)=   0.000000
     celldm(4)=   0.000000  celldm(5)=   0.000000  celldm(6)=   0.000000

     crystal axes: (cart. coord. in units of alat)
               a(1) = (  -0.500000   0.000000   0.500000 )  
               a(2) = (   0.000000   0.500000   0.500000 )  
               a(3) = (  -0.500000   0.500000   0.000000 )  

     reciprocal axes: (cart. coord. in units 2 pi/alat)
               b(1) = ( -1.000000 -1.000000  1.000000 )  
               b(2) = (  1.000000  1.000000  1.000000 )  
               b(3) = ( -1.000000  1.000000 -1.000000 )  


     PseudoPot. # 1 for Si read from file:
     /home/acedemo/psudo/Si.pbe-mt_fhi.UPF
     MD5 check sum: 259057c2adf9952f9ced37ae3d9e311d
     Pseudo is Norm-conserving, Zval =  4.0
     Generated using FHI98PP, converted with fhi2upf.x v.5.0.2
     Using radial grid of  495 points,  3 beta functions with: 
                l(1) =   0
                l(2) =   1
                l(3) =   3

     PseudoPot. # 2 for  P read from file:
     /home/acedemo/psudo/P.pbe-mt_fhi.UPF
     MD5 check sum: 7191c457fb61afa58d0f00d0e4a443c1
     Pseudo is Norm-conserving, Zval =  5.0
     Generated using FHI98PP, converted with fhi2upf.x v.5.0.2
     Using radial grid of  499 points,  3 beta functions with: 
                l(1) =   0
                l(2) =   1
                l(3) =   3

     atomic species   valence    mass     pseudopotential
        Si             4.00    28.08550     Si( 1.00)
        P              5.00    30.97376      P( 1.00)

     48 Sym. Ops., with inversion, found (24 have fractional translation)



   Cartesian axes

     site n.     atom                  positions (alat units)
         1           P   tau(   1) = (   0.0000000   0.0000000   0.0000000  )
         2           P   tau(   2) = (   0.2500000   0.2500000   0.2500000  )

     number of k points=    10  Marzari-Vanderbilt smearing, width (Ry)=  0.0500
                       cart. coord. in units 2pi/alat
        k(    1) = (   0.0000000   0.0000000   0.0000000), wk =   0.0160000
        k(    2) = (  -0.2000000   0.2000000  -0.2000000), wk =   0.1280000
        k(    3) = (  -0.4000000   0.4000000  -0.4000000), wk =   0.1280000
        k(    4) = (   0.0000000   0.4000000   0.0000000), wk =   0.0960000
        k(    5) = (  -0.2000000   0.6000000  -0.2000000), wk =   0.3840000
        k(    6) = (   0.6000000  -0.2000000   0.6000000), wk =   0.3840000
        k(    7) = (   0.4000000   0.0000000   0.4000000), wk =   0.1920000
        k(    8) = (   0.0000000   0.8000000   0.0000000), wk =   0.0960000
        k(    9) = (   0.8000000   0.0000000   0.8000000), wk =   0.1920000
        k(   10) = (   0.6000000  -0.2000000   1.0000000), wk =   0.3840000

     Dense  grid:    12939 G-vectors     FFT dimensions: (  36,  36,  36)

     Largest allocated arrays     est. size (Mb)     dimensions
        Kohn-Sham Wavefunctions         0.30 Mb     (    1639,   12)
        NL pseudopotentials             0.55 Mb     (    1639,   22)
        Each V/rho on FFT grid          0.71 Mb     (   46656)
        Each G-vector array             0.10 Mb     (   12939)
        G-vector shells                 0.00 Mb     (     180)
     Largest temporary arrays     est. size (Mb)     dimensions
        Auxiliary wavefunctions         1.20 Mb     (    1639,   48)
        Each subspace H/S matrix        0.04 Mb     (      48,   48)
        Each <psi_i|beta_j> matrix      0.00 Mb     (      22,   12)
        Arrays for rho mixing           5.70 Mb     (   46656,    8)

     Initial potential from superposition of free atoms

     starting charge    9.99977, renormalised to   10.00000
     Starting wfc are   32 randomized atomic wfcs

     total cpu time spent up to now is        1.5 secs

     per-process dynamical memory:    17.4 Mb

     Self-consistent Calculation

     iteration #  1     ecut=    50.00 Ry     beta=0.30
     Davidson diagonalization with overlap
     ethr =  1.00E-02,  avg # of iterations =  2.9

     Threshold (ethr) on eigenvalues was too large:
     Diagonalizing with lowered threshold

     Davidson diagonalization with overlap
     ethr =  1.61E-04,  avg # of iterations =  3.4

     total cpu time spent up to now is        4.5 secs

     total energy              =     -26.32228306 Ry
     Harris-Foulkes estimate   =     -26.32461499 Ry
     estimated scf accuracy    <       0.01633545 Ry

     iteration #  2     ecut=    50.00 Ry     beta=0.30
     Davidson diagonalization with overlap
     ethr =  1.63E-04,  avg # of iterations =  1.0

     total cpu time spent up to now is        5.8 secs

     total energy              =     -26.32060451 Ry
     Harris-Foulkes estimate   =     -26.32242459 Ry
     estimated scf accuracy    <       0.00696270 Ry

     iteration #  3     ecut=    50.00 Ry     beta=0.30
     Davidson diagonalization with overlap
     ethr =  6.96E-05,  avg # of iterations =  1.0

     total cpu time spent up to now is        7.2 secs

     total energy              =     -26.32090799 Ry
     Harris-Foulkes estimate   =     -26.32095916 Ry
     estimated scf accuracy    <       0.00014137 Ry

     iteration #  4     ecut=    50.00 Ry     beta=0.30
     Davidson diagonalization with overlap
     ethr =  1.41E-06,  avg # of iterations =  3.8

     total cpu time spent up to now is        8.6 secs

     total energy              =     -26.32092513 Ry
     Harris-Foulkes estimate   =     -26.32092870 Ry
     estimated scf accuracy    <       0.00000732 Ry

     iteration #  5     ecut=    50.00 Ry     beta=0.30
     Davidson diagonalization with overlap
     ethr =  7.32E-08,  avg # of iterations =  1.8

     total cpu time spent up to now is        9.6 secs

     total energy              =     -26.32092648 Ry
     Harris-Foulkes estimate   =     -26.32092639 Ry
     estimated scf accuracy    <       0.00000004 Ry

     iteration #  6     ecut=    50.00 Ry     beta=0.30
     Davidson diagonalization with overlap
     ethr =  3.56E-10,  avg # of iterations =  2.9

     total cpu time spent up to now is       11.1 secs

     total energy              =     -26.32092656 Ry
     Harris-Foulkes estimate   =     -26.32092651 Ry
     estimated scf accuracy    <       0.00000001 Ry

     iteration #  7     ecut=    50.00 Ry     beta=0.30
     Davidson diagonalization with overlap
     ethr =  1.37E-10,  avg # of iterations =  2.1

     total cpu time spent up to now is       12.1 secs

     total energy              =     -26.32092656 Ry
     Harris-Foulkes estimate   =     -26.32092657 Ry
     estimated scf accuracy    <          2.0E-09 Ry

     iteration #  8     ecut=    50.00 Ry     beta=0.30
     Davidson diagonalization with overlap
     ethr =  2.01E-11,  avg # of iterations =  2.4

     total cpu time spent up to now is       13.1 secs

     End of self-consistent calculation

          k = 0.0000 0.0000 0.0000 (  1639 PWs)   bands (ev):

    -8.0249   3.9497   4.0915   4.0915   4.0915   7.2637   7.2637   7.2637
    13.2216  13.9435  13.9435  17.4450

          k =-0.2000 0.2000-0.2000 (  1606 PWs)   bands (ev):

    -7.5658   0.5667   3.6161   3.6161   5.3820   7.9861   7.9861   8.9517
    13.3587  13.3587  14.5524  16.8278

          k =-0.4000 0.4000-0.4000 (  1616 PWs)   bands (ev):

    -6.4294  -2.2902   3.1021   3.1021   4.9355   8.5013   8.5013  12.3222
    14.6154  14.7341  14.7341  17.3372

          k = 0.0000 0.4000 0.0000 (  1607 PWs)   bands (ev):

    -7.4038   0.3999   2.9249   2.9249   6.4148   7.1142   9.1786   9.1786
    12.0035  14.6963  15.3452  18.4862

          k =-0.2000 0.6000-0.2000 (  1619 PWs)   bands (ev):

    -6.4155  -1.8535   1.8932   2.4546   6.5073   8.0146   9.9418  10.0341
    13.9059  15.7754  15.8913  17.9955

          k = 0.6000-0.2000 0.6000 (  1596 PWs)   bands (ev):

    -5.7333  -2.9367   1.2174   2.6516   6.4591   8.9578   9.6379  11.7767
    12.9897  14.2190  17.3453  17.7721

          k = 0.4000 0.0000 0.4000 (  1610 PWs)   bands (ev):

    -6.8402  -1.1055   1.7464   3.3470   6.5338   8.5793   8.7363   9.8880
    12.5325  15.1933  15.4370  18.1199

          k = 0.0000 0.8000 0.0000 (  1624 PWs)   bands (ev):

    -5.6161  -2.9005   1.8594   1.8594   5.7944   6.5420  12.2589  12.2589
    14.0312  16.9351  17.3090  17.6686

          k = 0.8000 0.0000 0.8000 (  1622 PWs)   bands (ev):

    -4.6530  -3.9861   0.9206   1.9491   6.2001   8.0152  11.9321  11.9973
    13.2256  15.1135  17.1243  19.7981

          k = 0.6000-0.2000 1.0000 (  1616 PWs)   bands (ev):

    -5.2970  -3.2404   0.9646   1.7567   8.0754   8.1418   9.4106  11.6015
    13.3891  14.7532  17.4935  19.3325

     the Fermi energy is     7.4627 ev

!    total energy              =     -26.32092657 Ry
     Harris-Foulkes estimate   =     -26.32092657 Ry
     estimated scf accuracy    <          1.1E-10 Ry

     The total energy is the sum of the following terms:

     one-electron contribution =       4.13608875 Ry
     hartree contribution      =       2.42010069 Ry
     xc contribution           =      -6.63775844 Ry
     ewald contribution        =     -26.24544956 Ry
     smearing contrib. (-TS)   =       0.00609199 Ry

     convergence has been achieved in   8 iterations

     Forces acting on atoms (Ry/au):

     atom    1 type  2   force =     0.00000000    0.00000000    0.00000000
     atom    2 type  2   force =    -0.00000000    0.00000000   -0.00000000

     Total force =     0.000000     Total SCF correction =     0.000000


     entering subroutine stress ...

          total   stress  (Ry/bohr**3)                   (kbar)     P=   -0.34
  -0.00000232  -0.00000000  -0.00000000         -0.34     -0.00     -0.00
  -0.00000000  -0.00000232   0.00000000         -0.00     -0.34      0.00
  -0.00000000   0.00000000  -0.00000232         -0.00      0.00     -0.34


     Writing output data file Si.save

     init_run     :      1.39s CPU      1.44s WALL (       1 calls)
     electrons    :     10.76s CPU     11.57s WALL (       1 calls)
     forces       :      0.10s CPU      0.10s WALL (       1 calls)
     stress       :      0.68s CPU      0.74s WALL (       1 calls)

     Called by init_run:
     wfcinit      :      1.10s CPU      1.14s WALL (       1 calls)
     potinit      :      0.06s CPU      0.06s WALL (       1 calls)

     Called by electrons:
     c_bands      :      8.54s CPU      9.15s WALL (       9 calls)
     sum_band     :      1.81s CPU      1.99s WALL (       9 calls)
     v_of_rho     :      0.43s CPU      0.44s WALL (       9 calls)
     mix_rho      :      0.03s CPU      0.03s WALL (       9 calls)

     Called by c_bands:
     init_us_2    :      0.37s CPU      0.39s WALL (     210 calls)
     cegterg      :      8.26s CPU      8.86s WALL (      90 calls)

     Called by *egterg:
     h_psi        :      8.30s CPU      8.87s WALL (     313 calls)
     g_psi        :      0.01s CPU      0.02s WALL (     213 calls)
     cdiaghg      :      0.11s CPU      0.12s WALL (     293 calls)

     Called by h_psi:
     add_vuspsi   :      0.25s CPU      0.26s WALL (     313 calls)

     General routines
     calbec       :      0.30s CPU      0.32s WALL (     333 calls)
     fft          :      0.18s CPU      0.18s WALL (     108 calls)
     fftw         :      8.71s CPU      9.38s WALL (    6792 calls)
     davcio       :      0.00s CPU      0.00s WALL (      10 calls)

     Parallel routines
     fft_scatter  :      0.24s CPU      0.25s WALL (    6900 calls)

     PWSCF        :    13.07s CPU        14.01s WALL


   This run was terminated on:  16:17:25  13Feb2023            

=------------------------------------------------------------------------------=
   JOB DONE.
=------------------------------------------------------------------------------=
