
     Program PWSCF v.5.1 starts on 13Feb2023 at 17: 4: 0 

     This program is part of the open-source Quantum ESPRESSO suite
     for quantum simulation of materials; please cite
         "P. Giannozzi et al., J. Phys.:Condens. Matter 21 395502 (2009);
          URL http://www.quantum-espresso.org", 
     in publications or presentations arising from this work. More details at
     http://www.quantum-espresso.org/quote

     Parallel version (MPI), running on     1 processors
     Waiting for input...
     Reading input from standard input

     Current dimensions of program PWSCF are:
     Max number of different atomic species (ntypx) = 10
     Max number of k-points (npk) =  40000
     Max angular momentum in pseudopotentials (lmaxx) =  3

     Atomic positions and unit cell read from directory:
     ./out/Si.save/

               file Si.pbe-mt_fhi.UPF: wavefunction(s)  4f renormalized

     Subspace diagonalization in iterative solution of the eigenvalue problem:
     a serial algorithm will be used


     G-vector sticks info
     --------------------
     sticks:   dense  smooth     PW     G-vecs:    dense   smooth      PW
     Sum         733     733    211                12939    12939    2109



     bravais-lattice index     =            2
     lattice parameter (alat)  =      10.2623  a.u.
     unit-cell volume          =     270.1967 (a.u.)^3
     number of atoms/cell      =            2
     number of atomic types    =            1
     number of electrons       =         8.20
     number of Kohn-Sham states=           10
     kinetic-energy cutoff     =      50.0000  Ry
     charge density cutoff     =     200.0000  Ry
     Exchange-correlation      = PBE ( 1  4  3  4 0)

     celldm(1)=  10.262347  celldm(2)=   0.000000  celldm(3)=   0.000000
     celldm(4)=   0.000000  celldm(5)=   0.000000  celldm(6)=   0.000000

     crystal axes: (cart. coord. in units of alat)
               a(1) = (  -0.500000   0.000000   0.500000 )  
               a(2) = (   0.000000   0.500000   0.500000 )  
               a(3) = (  -0.500000   0.500000   0.000000 )  

     reciprocal axes: (cart. coord. in units 2 pi/alat)
               b(1) = ( -1.000000 -1.000000  1.000000 )  
               b(2) = (  1.000000  1.000000  1.000000 )  
               b(3) = ( -1.000000  1.000000 -1.000000 )  


     PseudoPot. # 1 for Si read from file:
     /home/acedemo/psudo/Si.pbe-mt_fhi.UPF
     MD5 check sum: 259057c2adf9952f9ced37ae3d9e311d
     Pseudo is Norm-conserving, Zval =  4.0
     Generated using FHI98PP, converted with fhi2upf.x v.5.0.2
     Using radial grid of  495 points,  3 beta functions with: 
                l(1) =   0
                l(2) =   1
                l(3) =   3

     atomic species   valence    mass     pseudopotential
        Si             4.00    28.08550     Si( 1.00)

     48 Sym. Ops., with inversion, found (24 have fractional translation)



   Cartesian axes

     site n.     atom                  positions (alat units)
         1           Si  tau(   1) = (   0.0000000   0.0000000   0.0000000  )
         2           Si  tau(   2) = (   0.2500000   0.2500000   0.2500000  )

     number of k points=    51  Marzari-Vanderbilt smearing, width (Ry)=  0.0500
                       cart. coord. in units 2pi/alat
        k(    1) = (   0.5000000   0.5000000   0.5000000), wk =   0.0000000
        k(    2) = (   0.4500000   0.4500000   0.4500000), wk =   0.0014779
        k(    3) = (   0.4000000   0.4000000   0.4000000), wk =   0.0029558
        k(    4) = (   0.3500000   0.3500000   0.3500000), wk =   0.0044337
        k(    5) = (   0.3000000   0.3000000   0.3000000), wk =   0.0059116
        k(    6) = (   0.2500000   0.2500000   0.2500000), wk =   0.0073895
        k(    7) = (   0.2000000   0.2000000   0.2000000), wk =   0.0088674
        k(    8) = (   0.1500000   0.1500000   0.1500000), wk =   0.0103453
        k(    9) = (   0.1000000   0.1000000   0.1000000), wk =   0.0118232
        k(   10) = (   0.0500000   0.0500000   0.0500000), wk =   0.0133011
        k(   11) = (   0.0000000   0.0000000   0.0000000), wk =   0.0147790
        k(   12) = (   0.0000000   0.1000000   0.0000000), wk =   0.0168691
        k(   13) = (   0.0000000   0.2000000   0.0000000), wk =   0.0189591
        k(   14) = (   0.0000000   0.3000000   0.0000000), wk =   0.0210492
        k(   15) = (   0.0000000   0.4000000   0.0000000), wk =   0.0231392
        k(   16) = (   0.0000000   0.5000000   0.0000000), wk =   0.0252293
        k(   17) = (   0.0000000   0.6000000   0.0000000), wk =   0.0273194
        k(   18) = (   0.0000000   0.7000000   0.0000000), wk =   0.0294094
        k(   19) = (   0.0000000   0.8000000   0.0000000), wk =   0.0314995
        k(   20) = (   0.0000000   0.9000000   0.0000000), wk =   0.0335896
        k(   21) = (   0.0000000   1.0000000   0.0000000), wk =   0.0356796
        k(   22) = (   0.0000000   0.9750000   0.0750000), wk =   0.0370621
        k(   23) = (   0.0000000   0.9500000   0.1500000), wk =   0.0384445
        k(   24) = (  -0.0000000   0.9250000   0.2250000), wk =   0.0398270
        k(   25) = (  -0.0000000   0.9000000   0.3000000), wk =   0.0412094
        k(   26) = (   0.0000000   0.8750000   0.3750000), wk =   0.0425919
        k(   27) = (   0.0000000   0.8500000   0.4500000), wk =   0.0439743
        k(   28) = (   0.0000000   0.8250000   0.5250000), wk =   0.0453568
        k(   29) = (  -0.0000000   0.8000000   0.6000000), wk =   0.0467392
        k(   30) = (  -0.0000000   0.7750000   0.6750000), wk =   0.0481217
        k(   31) = (   0.0000000   0.7500000   0.7500000), wk =   0.0495041
        k(   32) = (   0.0000000   0.7250000   0.7750000), wk =   0.0500266
        k(   33) = (   0.0000000   0.7000000   0.8000000), wk =   0.0505491
        k(   34) = (   0.0000000   0.6750000   0.8250000), wk =   0.0510717
        k(   35) = (   0.0000000   0.6500000   0.8500000), wk =   0.0515942
        k(   36) = (   0.0000000   0.6250000   0.8750000), wk =   0.0521167
        k(   37) = (   0.0000000   0.6000000   0.9000000), wk =   0.0526392
        k(   38) = (   0.0000000   0.5750000   0.9250000), wk =   0.0531617
        k(   39) = (   0.0000000   0.5500000   0.9500000), wk =   0.0536842
        k(   40) = (   0.0000000   0.5250000   0.9750000), wk =   0.0542067
        k(   41) = (   0.0000000   0.5000000   1.0000000), wk =   0.0547293
        k(   42) = (   0.0000000   0.4500000   0.9000000), wk =   0.0574942
        k(   43) = (  -0.0000000   0.4000000   0.8000000), wk =   0.0602591
        k(   44) = (  -0.0000000   0.3500000   0.7000000), wk =   0.0630239
        k(   45) = (  -0.0000000   0.3000000   0.6000000), wk =   0.0657888
        k(   46) = (   0.0000000   0.2500000   0.5000000), wk =   0.0685537
        k(   47) = (   0.0000000   0.2000000   0.4000000), wk =   0.0713186
        k(   48) = (   0.0000000   0.1500000   0.3000000), wk =   0.0740835
        k(   49) = (  -0.0000000   0.1000000   0.2000000), wk =   0.0768484
        k(   50) = (  -0.0000000   0.0500000   0.1000000), wk =   0.0796133
        k(   51) = (   0.0000000   0.0000000   0.0000000), wk =   0.0823782

     Dense  grid:    12939 G-vectors     FFT dimensions: (  36,  36,  36)

     Largest allocated arrays     est. size (Mb)     dimensions
        Kohn-Sham Wavefunctions         0.25 Mb     (    1639,   10)
        NL pseudopotentials             0.55 Mb     (    1639,   22)
        Each V/rho on FFT grid          0.71 Mb     (   46656)
        Each G-vector array             0.10 Mb     (   12939)
        G-vector shells                 0.00 Mb     (     180)
     Largest temporary arrays     est. size (Mb)     dimensions
        Auxiliary wavefunctions         1.00 Mb     (    1639,   40)
        Each subspace H/S matrix        0.02 Mb     (      40,   40)
        Each <psi_i|beta_j> matrix      0.00 Mb     (      22,   10)

     The potential is recalculated from file :
     ./out/Si.save/charge-density.dat

     Starting wfc are   32 randomized atomic wfcs

     Band Structure Calculation
     Davidson diagonalization with overlap

     ethr =  1.95E-11,  avg # of iterations = 16.5

     total cpu time spent up to now is       23.3 secs

     End of band structure calculation

          k = 0.5000 0.5000 0.5000 (  1622 PWs)   bands (ev):

    -3.4713  -0.8281   4.9728   4.9728   7.6513   9.4903   9.4903  13.7750
    16.7229  16.7229

          k = 0.4500 0.4500 0.4500 (  1610 PWs)   bands (ev):

    -3.6072  -0.6302   4.9908   4.9908   7.6719   9.5111   9.5111  13.8077
    16.0242  16.0242

          k = 0.4000 0.4000 0.4000 (  1616 PWs)   bands (ev):

    -3.9277  -0.1245   5.0446   5.0446   7.7337   9.5676   9.5676  13.8935
    15.1440  15.1440

          k = 0.3500 0.3500 0.3500 (  1610 PWs)   bands (ev):

    -4.3076   0.5619   5.1338   5.1338   7.8353   9.6396   9.6396  13.9605
    14.3676  14.3676

          k = 0.3000 0.3000 0.3000 (  1615 PWs)   bands (ev):

    -4.6799   1.3586   5.2573   5.2573   7.9744   9.6894   9.6894  13.7056
    13.7515  13.7515

          k = 0.2500 0.2500 0.2500 (  1618 PWs)   bands (ev):

    -5.0148   2.2297   5.4124   5.4124   8.1461   9.6641   9.6641  12.9878
    13.3521  13.3521

          k = 0.2000 0.2000 0.2000 (  1606 PWs)   bands (ev):

    -5.2984   3.1509   5.5932   5.5932   8.3408   9.5235   9.5235  12.1266
    13.2082  13.2082

          k = 0.1500 0.1500 0.1500 (  1600 PWs)   bands (ev):

    -5.5236   4.0962   5.7882   5.7882   8.5407   9.2840   9.2840  11.2354
    13.2971  13.2971

          k = 0.1000 0.1000 0.1000 (  1606 PWs)   bands (ev):

    -5.6866   5.0207   5.9758   5.9758   8.7103   9.0156   9.0156  10.3719
    13.5322  13.5322

          k = 0.0500 0.0500 0.0500 (  1630 PWs)   bands (ev):

    -5.7851   5.8138   6.1199   6.1199   8.7756   8.8036   8.8036   9.6797
    13.7855  13.7855

          k = 0.0000 0.0000 0.0000 (  1639 PWs)   bands (ev):

    -5.8181   6.1756   6.1756   6.1756   8.7222   8.7222   8.7222   9.4324
    13.8997  13.8997

          k = 0.0000 0.1000 0.0000 (  1627 PWs)   bands (ev):

    -5.7741   5.8922   5.9982   5.9982   8.6127   8.9532   8.9532   9.7054
    13.5617  13.9481

          k = 0.0000 0.2000 0.0000 (  1599 PWs)   bands (ev):

    -5.6425   5.2300   5.5943   5.5943   8.3303   9.5163   9.5163  10.2666
    12.8892  14.0934

          k = 0.0000 0.3000 0.0000 (  1607 PWs)   bands (ev):

    -5.4239   4.4158   5.1286   5.1286   7.9652  10.2443  10.2443  10.5094
    12.5945  14.3352

          k = 0.0000 0.4000 0.0000 (  1607 PWs)   bands (ev):

    -5.1197   3.5444   4.6780   4.6780   7.5909  10.0009  11.0564  11.0564
    13.1630  14.6736

          k = 0.0000 0.5000 0.0000 (  1612 PWs)   bands (ev):

    -4.7316   2.6510   4.2745   4.2745   7.2536   9.2457  11.9172  11.9172
    14.1092  15.1080

          k = 0.0000 0.6000 0.0000 (  1620 PWs)   bands (ev):

    -4.2623   1.7524   3.9333   3.9333   6.9809   8.5252  12.8098  12.8098
    15.1506  15.6382

          k = 0.0000 0.7000 0.0000 (  1632 PWs)   bands (ev):

    -3.7151   0.8605   3.6624   3.6624   6.7902   7.9099  13.7260  13.7260
    16.2027  16.2636

          k = 0.0000 0.8000 0.0000 (  1624 PWs)   bands (ev):

    -3.0945  -0.0129   3.4663   3.4663   6.6937   7.4194  14.6601  14.6601
    16.9833  17.2242

          k = 0.0000 0.9000 0.0000 (  1608 PWs)   bands (ev):

    -2.4061  -0.8559   3.3477   3.3477   6.7008   7.0571  15.5908  15.5908
    17.7965  17.8020

          k = 0.0000 1.0000 0.0000 (  1604 PWs)   bands (ev):

    -1.6570  -1.6570   3.3080   3.3080   6.8195   6.8195  16.2376  16.2376
    17.1415  17.1415

          k = 0.0000 0.9750 0.0750 (  1618 PWs)   bands (ev):

    -1.8397  -1.4546   3.2329   3.2397   6.9170   7.0017  15.8325  16.0504
    16.8464  17.0779

          k = 0.0000 0.9500 0.1500 (  1622 PWs)   bands (ev):

    -1.9950  -1.2446   3.0328   3.0810   7.2685   7.4213  14.8062  15.6148
    16.3604  17.2207

          k =-0.0000 0.9250 0.2250 (  1622 PWs)   bands (ev):

    -2.1186  -1.0454   2.7686   2.9132   7.8074   8.0118  13.6359  14.9702
    15.9954  17.3734

          k =-0.0000 0.9000 0.3000 (  1623 PWs)   bands (ev):

    -2.2086  -0.8811   2.4941   2.8052   8.4753   8.7208  12.4617  14.2416
    15.7034  17.3440

          k = 0.0000 0.8750 0.3750 (  1614 PWs)   bands (ev):

    -2.2643  -0.7756   2.2434   2.8036   9.2327   9.5034  11.3394  13.5085
    15.4270  17.0845

          k = 0.0000 0.8500 0.4500 (  1612 PWs)   bands (ev):

    -2.2865  -0.7415   2.0368   2.9266   9.9846  10.0498  10.6506  12.8057
    15.1450  16.6722

          k = 0.0000 0.8250 0.5250 (  1611 PWs)   bands (ev):

    -2.2764  -0.7727   1.8864   3.1572   9.1440  10.8756  11.4299  12.1797
    14.8506  16.1690

          k =-0.0000 0.8000 0.6000 (  1614 PWs)   bands (ev):

    -2.2357  -0.8497   1.8002   3.4420   8.2860  11.2387  12.0932  12.4058
    14.5459  15.6207

          k =-0.0000 0.7750 0.6750 (  1621 PWs)   bands (ev):

    -2.1658  -0.9521   1.7825   3.6833   7.6293  10.7734  12.8917  13.4278
    14.2474  15.0657

          k = 0.0000 0.7500 0.7500 (  1624 PWs)   bands (ev):

    -2.0678  -1.0664   1.8356   3.7377   7.3169  10.2545  13.6216  14.1311
    14.3328  14.6653

          k = 0.0000 0.7250 0.7750 (  1616 PWs)   bands (ev):

    -2.0620  -1.0686   1.8403   3.7004   7.3718  10.2583  13.4699  14.0669
    14.2821  14.9322

          k = 0.0000 0.7000 0.8000 (  1621 PWs)   bands (ev):

    -2.0445  -1.0757   1.8543   3.5958   7.5295  10.2699  13.1946  13.6877
    14.5551  15.3138

          k = 0.0000 0.6750 0.8250 (  1620 PWs)   bands (ev):

    -2.0155  -1.0883   1.8776   3.4415   7.7730  10.2888  12.8972  13.3035
    14.8486  15.6984

          k = 0.0000 0.6500 0.8500 (  1616 PWs)   bands (ev):

    -1.9748  -1.1078   1.9102   3.2575   8.0832  10.3144  12.5969  12.9237
    15.1440  16.0704

          k = 0.0000 0.6250 0.8750 (  1616 PWs)   bands (ev):

    -1.9226  -1.1362   1.9518   3.0616   8.4438  10.3457  12.3004  12.5515
    15.4351  16.4148

          k = 0.0000 0.6000 0.9000 (  1613 PWs)   bands (ev):

    -1.8589  -1.1756   2.0024   2.8677   8.8416  10.3807  12.0122  12.1894
    15.7188  16.7075

          k = 0.0000 0.5750 0.9250 (  1615 PWs)   bands (ev):

    -1.7836  -1.2285   2.0617   2.6865   9.2659  10.4156  11.7377  11.8408
    15.9924  16.9091

          k = 0.0000 0.5500 0.9500 (  1615 PWs)   bands (ev):

    -1.6969  -1.2972   2.1294   2.5261   9.7040  10.4427  11.4860  11.5131
    16.2534  16.9752

          k = 0.0000 0.5250 0.9750 (  1615 PWs)   bands (ev):

    -1.5988  -1.3838   2.2052   2.3922  10.1258  10.4456  11.2327  11.2745
    16.4982  16.8987

          k = 0.0000 0.5000 1.0000 (  1628 PWs)   bands (ev):

    -1.4893  -1.4893   2.2888   2.2888  10.3954  10.3954  11.1329  11.1329
    16.7216  16.7216

          k = 0.0000 0.4500 0.9000 (  1616 PWs)   bands (ev):

    -2.0210  -0.9860   2.0892   2.6842  10.0417  10.0931  10.7988  12.3398
    15.6985  17.0501

          k =-0.0000 0.4000 0.8000 (  1616 PWs)   bands (ev):

    -2.6511  -0.3969   2.1619   3.1579   9.5263   9.8926  10.5650  13.9154
    14.6033  16.3187

          k =-0.0000 0.3500 0.7000 (  1618 PWs)   bands (ev):

    -3.3051   0.2773   2.4448   3.6828   9.1033   9.8228  10.4090  13.5511
    15.4110  15.5249

          k =-0.0000 0.3000 0.6000 (  1609 PWs)   bands (ev):

    -3.9269   1.0354   2.8838   4.2229   8.7882   9.9061  10.3012  12.5658
    14.5876  16.8595

          k = 0.0000 0.2500 0.5000 (  1610 PWs)   bands (ev):

    -4.4828   1.8751   3.4392   4.7390   8.5834  10.0258  10.3265  11.6545
    13.9125  16.3497

          k = 0.0000 0.2000 0.4000 (  1613 PWs)   bands (ev):

    -4.9536   2.7909   4.0762   5.1989   8.4870   9.8665  10.7274  10.8217
    13.3576  14.9567

          k = 0.0000 0.1500 0.3000 (  1607 PWs)   bands (ev):

    -5.3279   3.7698   4.7544   5.5861   8.4903   9.5817  10.0731  11.1190
    12.8084  14.1338

          k =-0.0000 0.1000 0.2000 (  1600 PWs)   bands (ev):

    -5.5991   4.7784   5.4143   5.8923   8.5696   9.2554   9.4240  10.6856
    12.9153  13.9051

          k =-0.0000 0.0500 0.1000 (  1623 PWs)   bands (ev):

    -5.7632   5.7094   5.9506   6.0998   8.6730   8.9273   8.9375   9.8119
    13.5532  13.8892

          k = 0.0000 0.0000 0.0000 (  1639 PWs)   bands (ev):

    -5.8181   6.1756   6.1756   6.1756   8.7222   8.7222   8.7222   9.4324
    13.8997  13.8997

     Writing output data file Si.save

     init_run     :      0.16s CPU      0.16s WALL (       1 calls)
     electrons    :     21.36s CPU     21.68s WALL (       1 calls)

     Called by init_run:
     wfcinit      :      0.00s CPU      0.00s WALL (       1 calls)
     potinit      :      0.04s CPU      0.04s WALL (       1 calls)

     Called by electrons:
     c_bands      :     21.36s CPU     21.68s WALL (       1 calls)
     v_of_rho     :      0.03s CPU      0.03s WALL (       1 calls)

     Called by c_bands:
     init_us_2    :      0.08s CPU      0.08s WALL (      51 calls)
     cegterg      :     16.18s CPU     16.42s WALL (      55 calls)

     Called by *egterg:
     h_psi        :     17.94s CPU     18.18s WALL (     949 calls)
     g_psi        :      0.04s CPU      0.04s WALL (     843 calls)
     cdiaghg      :      0.35s CPU      0.35s WALL (     894 calls)

     Called by h_psi:
     add_vuspsi   :      0.50s CPU      0.50s WALL (     949 calls)

     General routines
     calbec       :      0.56s CPU      0.56s WALL (     949 calls)
     fft          :      0.02s CPU      0.02s WALL (      10 calls)
     fftw         :     16.04s CPU     16.27s WALL (   14662 calls)
     davcio       :      0.00s CPU      0.01s WALL (      51 calls)

     Parallel routines
     fft_scatter  :      0.38s CPU      0.39s WALL (   14672 calls)

     PWSCF        :    22.96s CPU        23.54s WALL


   This run was terminated on:  17: 4:24  13Feb2023            

=------------------------------------------------------------------------------=
   JOB DONE.
=------------------------------------------------------------------------------=
