
     Program PWSCF v.5.1 starts on 13Feb2023 at 17: 2:57 

     This program is part of the open-source Quantum ESPRESSO suite
     for quantum simulation of materials; please cite
         "P. Giannozzi et al., J. Phys.:Condens. Matter 21 395502 (2009);
          URL http://www.quantum-espresso.org", 
     in publications or presentations arising from this work. More details at
     http://www.quantum-espresso.org/quote

     Parallel version (MPI), running on     1 processors
     Waiting for input...
     Reading input from standard input

     Current dimensions of program PWSCF are:
     Max number of different atomic species (ntypx) = 10
     Max number of k-points (npk) =  40000
     Max angular momentum in pseudopotentials (lmaxx) =  3

     Atomic positions and unit cell read from directory:
     ./out/Si.save/

               file Si.pbe-mt_fhi.UPF: wavefunction(s)  4f renormalized

     Subspace diagonalization in iterative solution of the eigenvalue problem:
     a serial algorithm will be used


     G-vector sticks info
     --------------------
     sticks:   dense  smooth     PW     G-vecs:    dense   smooth      PW
     Sum         733     733    223                12939    12939    2229



     bravais-lattice index     =            2
     lattice parameter (alat)  =      10.2623  a.u.
     unit-cell volume          =     270.1967 (a.u.)^3
     number of atoms/cell      =            2
     number of atomic types    =            1
     number of electrons       =         8.20
     number of Kohn-Sham states=           10
     kinetic-energy cutoff     =      50.0000  Ry
     charge density cutoff     =     200.0000  Ry
     Exchange-correlation      = PBE ( 1  4  3  4 0)

     celldm(1)=  10.262347  celldm(2)=   0.000000  celldm(3)=   0.000000
     celldm(4)=   0.000000  celldm(5)=   0.000000  celldm(6)=   0.000000

     crystal axes: (cart. coord. in units of alat)
               a(1) = (  -0.500000   0.000000   0.500000 )  
               a(2) = (   0.000000   0.500000   0.500000 )  
               a(3) = (  -0.500000   0.500000   0.000000 )  

     reciprocal axes: (cart. coord. in units 2 pi/alat)
               b(1) = ( -1.000000 -1.000000  1.000000 )  
               b(2) = (  1.000000  1.000000  1.000000 )  
               b(3) = ( -1.000000  1.000000 -1.000000 )  


     PseudoPot. # 1 for Si read from file:
     /home/acedemo/psudo/Si.pbe-mt_fhi.UPF
     MD5 check sum: 259057c2adf9952f9ced37ae3d9e311d
     Pseudo is Norm-conserving, Zval =  4.0
     Generated using FHI98PP, converted with fhi2upf.x v.5.0.2
     Using radial grid of  495 points,  3 beta functions with: 
                l(1) =   0
                l(2) =   1
                l(3) =   3

     atomic species   valence    mass     pseudopotential
        Si             4.00    28.08550     Si( 1.00)

     48 Sym. Ops., with inversion, found (24 have fractional translation)



   Cartesian axes

     site n.     atom                  positions (alat units)
         1           Si  tau(   1) = (   0.0000000   0.0000000   0.0000000  )
         2           Si  tau(   2) = (   0.2500000   0.2500000   0.2500000  )

     number of k points=    72 (tetrahedron method)
                       cart. coord. in units 2pi/alat
        k(    1) = (   0.0000000   0.0000000   0.0000000), wk =   0.0011574
        k(    2) = (  -0.0833333   0.0833333  -0.0833333), wk =   0.0092593
        k(    3) = (  -0.1666667   0.1666667  -0.1666667), wk =   0.0092593
        k(    4) = (  -0.2500000   0.2500000  -0.2500000), wk =   0.0092593
        k(    5) = (  -0.3333333   0.3333333  -0.3333333), wk =   0.0092593
        k(    6) = (  -0.4166667   0.4166667  -0.4166667), wk =   0.0092593
        k(    7) = (   0.5000000  -0.5000000   0.5000000), wk =   0.0046296
        k(    8) = (   0.0000000   0.1666667   0.0000000), wk =   0.0069444
        k(    9) = (  -0.0833333   0.2500000  -0.0833333), wk =   0.0277778
        k(   10) = (  -0.1666667   0.3333333  -0.1666667), wk =   0.0277778
        k(   11) = (  -0.2500000   0.4166667  -0.2500000), wk =   0.0277778
        k(   12) = (  -0.3333333   0.5000000  -0.3333333), wk =   0.0277778
        k(   13) = (   0.5833333  -0.4166667   0.5833333), wk =   0.0277778
        k(   14) = (   0.5000000  -0.3333333   0.5000000), wk =   0.0277778
        k(   15) = (   0.4166667  -0.2500000   0.4166667), wk =   0.0277778
        k(   16) = (   0.3333333  -0.1666667   0.3333333), wk =   0.0277778
        k(   17) = (   0.2500000  -0.0833333   0.2500000), wk =   0.0277778
        k(   18) = (   0.1666667  -0.0000000   0.1666667), wk =   0.0138889
        k(   19) = (   0.0000000   0.3333333   0.0000000), wk =   0.0069444
        k(   20) = (  -0.0833333   0.4166667  -0.0833333), wk =   0.0277778
        k(   21) = (  -0.1666667   0.5000000  -0.1666667), wk =   0.0277778
        k(   22) = (  -0.2500000   0.5833333  -0.2500000), wk =   0.0277778
        k(   23) = (   0.6666667  -0.3333333   0.6666667), wk =   0.0277778
        k(   24) = (   0.5833333  -0.2500000   0.5833333), wk =   0.0277778
        k(   25) = (   0.5000000  -0.1666667   0.5000000), wk =   0.0277778
        k(   26) = (   0.4166667  -0.0833333   0.4166667), wk =   0.0277778
        k(   27) = (   0.3333333   0.0000000   0.3333333), wk =   0.0138889
        k(   28) = (   0.0000000   0.5000000   0.0000000), wk =   0.0069444
        k(   29) = (  -0.0833333   0.5833333  -0.0833333), wk =   0.0277778
        k(   30) = (  -0.1666667   0.6666667  -0.1666667), wk =   0.0277778
        k(   31) = (   0.7500000  -0.2500000   0.7500000), wk =   0.0277778
        k(   32) = (   0.6666667  -0.1666667   0.6666667), wk =   0.0277778
        k(   33) = (   0.5833333  -0.0833333   0.5833333), wk =   0.0277778
        k(   34) = (   0.5000000   0.0000000   0.5000000), wk =   0.0138889
        k(   35) = (   0.0000000   0.6666667   0.0000000), wk =   0.0069444
        k(   36) = (  -0.0833333   0.7500000  -0.0833333), wk =   0.0277778
        k(   37) = (   0.8333333  -0.1666667   0.8333333), wk =   0.0277778
        k(   38) = (   0.7500000  -0.0833333   0.7500000), wk =   0.0277778
        k(   39) = (   0.6666667   0.0000000   0.6666667), wk =   0.0138889
        k(   40) = (   0.0000000   0.8333333   0.0000000), wk =   0.0069444
        k(   41) = (   0.9166667  -0.0833333   0.9166667), wk =   0.0277778
        k(   42) = (   0.8333333   0.0000000   0.8333333), wk =   0.0138889
        k(   43) = (   0.0000000  -1.0000000   0.0000000), wk =   0.0034722
        k(   44) = (  -0.1666667   0.3333333   0.0000000), wk =   0.0277778
        k(   45) = (  -0.2500000   0.4166667  -0.0833333), wk =   0.0555556
        k(   46) = (  -0.3333333   0.5000000  -0.1666667), wk =   0.0555556
        k(   47) = (   0.5833333  -0.4166667   0.7500000), wk =   0.0555556
        k(   48) = (   0.5000000  -0.3333333   0.6666667), wk =   0.0277778
        k(   49) = (  -0.1666667   0.5000000   0.0000000), wk =   0.0277778
        k(   50) = (  -0.2500000   0.5833333  -0.0833333), wk =   0.0555556
        k(   51) = (   0.6666667  -0.3333333   0.8333333), wk =   0.0555556
        k(   52) = (   0.5833333  -0.2500000   0.7500000), wk =   0.0555556
        k(   53) = (   0.5000000  -0.1666667   0.6666667), wk =   0.0555556
        k(   54) = (   0.4166667  -0.0833333   0.5833333), wk =   0.0555556
        k(   55) = (   0.3333333   0.0000000   0.5000000), wk =   0.0277778
        k(   56) = (  -0.1666667   0.6666667  -0.0000000), wk =   0.0277778
        k(   57) = (   0.7500000  -0.2500000   0.9166667), wk =   0.0555556
        k(   58) = (   0.6666667  -0.1666667   0.8333333), wk =   0.0555556
        k(   59) = (   0.5833333  -0.0833333   0.7500000), wk =   0.0555556
        k(   60) = (   0.5000000   0.0000000   0.6666667), wk =   0.0277778
        k(   61) = (   0.8333333  -0.1666667   1.0000000), wk =   0.0277778
        k(   62) = (   0.7500000  -0.0833333   0.9166667), wk =   0.0555556
        k(   63) = (   0.6666667   0.0000000   0.8333333), wk =   0.0277778
        k(   64) = (  -0.1666667  -1.0000000   0.0000000), wk =   0.0138889
        k(   65) = (   0.6666667  -0.3333333   1.0000000), wk =   0.0277778
        k(   66) = (   0.5833333  -0.2500000   0.9166667), wk =   0.0555556
        k(   67) = (   0.5000000  -0.1666667   0.8333333), wk =   0.0277778
        k(   68) = (   0.6666667  -0.1666667   1.0000000), wk =   0.0277778
        k(   69) = (   0.5833333  -0.0833333   0.9166667), wk =   0.0555556
        k(   70) = (   0.5000000   0.0000000   0.8333333), wk =   0.0277778
        k(   71) = (  -0.3333333  -1.0000000   0.0000000), wk =   0.0138889
        k(   72) = (  -0.5000000  -1.0000000   0.0000000), wk =   0.0069444

     Dense  grid:    12939 G-vectors     FFT dimensions: (  36,  36,  36)

     Largest allocated arrays     est. size (Mb)     dimensions
        Kohn-Sham Wavefunctions         0.25 Mb     (    1639,   10)
        NL pseudopotentials             0.55 Mb     (    1639,   22)
        Each V/rho on FFT grid          0.71 Mb     (   46656)
        Each G-vector array             0.10 Mb     (   12939)
        G-vector shells                 0.00 Mb     (     180)
     Largest temporary arrays     est. size (Mb)     dimensions
        Auxiliary wavefunctions         1.00 Mb     (    1639,   40)
        Each subspace H/S matrix        0.02 Mb     (      40,   40)
        Each <psi_i|beta_j> matrix      0.00 Mb     (      22,   10)

     The potential is recalculated from file :
     ./out/Si.save/charge-density.dat

     Starting wfc are   32 randomized atomic wfcs

     Band Structure Calculation
     Davidson diagonalization with overlap

     ethr =  1.95E-11,  avg # of iterations = 18.4

     total cpu time spent up to now is       37.7 secs

     End of band structure calculation

          k = 0.0000 0.0000 0.0000 (  1639 PWs)   bands (ev):

    -5.8181   6.1756   6.1756   6.1756   8.7222   8.7222   8.7222   9.4324
    13.8997  13.8997

          k =-0.0833 0.0833-0.0833 (  1612 PWs)   bands (ev):

    -5.7267   5.3090   6.0309   6.0309   8.7490   8.9346   8.9346  10.1096
    13.6220  13.6220

          k =-0.1667 0.1667-0.1667 (  1591 PWs)   bands (ev):

    -5.4553   3.7806   5.7227   5.7227   8.4752   9.3712   9.3712  11.5328
    13.2459  13.2459

          k =-0.2500 0.2500-0.2500 (  1618 PWs)   bands (ev):

    -5.0148   2.2297   5.4124   5.4124   8.1461   9.6641   9.6641  12.9878
    13.3521  13.3521

          k =-0.3333 0.3333-0.3333 (  1616 PWs)   bands (ev):

    -4.4345   0.8174   5.1712   5.1712   7.8777   9.6611   9.6611  13.9356
    14.1417  14.1417

          k =-0.4167 0.4167-0.4167 (  1616 PWs)   bands (ev):

    -3.8092  -0.3183   5.0227   5.0227   7.7086   9.5457   9.5457  13.8612
    15.4292  15.4292

          k = 0.5000-0.5000 0.5000 (  1622 PWs)   bands (ev):

    -3.4713  -0.8281   4.9728   4.9728   7.6513   9.4903   9.4903  13.7750
    16.7229  16.7229

          k = 0.0000 0.1667 0.0000 (  1615 PWs)   bands (ev):

    -5.6961   5.4756   5.7419   5.7419   8.4381   9.3041   9.3041  10.0777
    13.1126  14.0342

          k =-0.0833 0.2500-0.0833 (  1599 PWs)   bands (ev):

    -5.4842   4.2369   5.3759   5.5669   8.4550   9.3671   9.8431  10.9996
    12.7545  13.9693

          k =-0.1667 0.3333-0.1667 (  1610 PWs)   bands (ev):

    -5.0986   2.7301   5.0618   5.2409   8.5699   9.3603  10.2271  11.5185
    13.4908  14.0210

          k =-0.2500 0.4167-0.2500 (  1606 PWs)   bands (ev):

    -4.5598   1.2886   4.8516   4.8858   8.4179   9.4443  10.2465  12.0935
    14.6768  14.7481

          k =-0.3333 0.5000-0.3333 (  1616 PWs)   bands (ev):

    -3.9300   0.0526   4.5882   4.7621   8.2498   9.4076  10.0476  13.1387
    14.7963  15.8653

          k = 0.5833-0.4167 0.5833 (  1615 PWs)   bands (ev):

    -3.4342  -0.7230   4.3821   4.7939   8.1688   9.4073   9.8457  13.9993
    15.1497  16.6752

          k = 0.5000-0.3333 0.5000 (  1616 PWs)   bands (ev):

    -3.5565  -0.5437   4.2859   4.9382   8.1957   9.5242   9.7344  14.0993
    15.1109  15.5873

          k = 0.4167-0.2500 0.4167 (  1611 PWs)   bands (ev):

    -4.1435   0.4348   4.3126   5.1792   8.3293   9.7042   9.7365  13.5841
    13.7278  15.1772

          k = 0.3333-0.1667 0.3333 (  1605 PWs)   bands (ev):

    -4.7551   1.7548   4.4723   5.4908   8.5572   9.6269   9.8940  12.6195
    12.8140  15.1495

          k = 0.2500-0.0833 0.2500 (  1600 PWs)   bands (ev):

    -5.2463   3.2187   4.7773   5.8217   8.8452   9.3295   9.6819  11.8367
    12.5953  14.0615

          k = 0.1667-0.0000 0.1667 (  1592 PWs)   bands (ev):

    -5.5751   4.5763   5.3031   6.0579   8.9718   9.0713   9.1161  10.9178
    12.9831  13.7299

          k = 0.0000 0.3333 0.0000 (  1607 PWs)   bands (ev):

    -5.3320   4.1293   4.9746   4.9746   7.8386  10.4045  10.5080  10.5080
    12.7055  14.4373

          k =-0.0833 0.4167-0.0833 (  1616 PWs)   bands (ev):

    -5.0034   3.0398   4.6237   4.6388   7.8565  10.0120  10.8315  11.0697
    13.6762  14.6601

          k =-0.1667 0.5000-0.1667 (  1611 PWs)   bands (ev):

    -4.5129   1.7244   4.1669   4.4195   8.0941  10.1882  10.6592  11.2341
    15.2047  15.2376

          k =-0.2500 0.5833-0.2500 (  1610 PWs)   bands (ev):

    -3.9015   0.4839   3.7249   4.3357   8.1345  10.3904  11.0507  11.1757
    15.9791  16.3532

          k = 0.6667-0.3333 0.6667 (  1607 PWs)   bands (ev):

    -3.3130  -0.4566   3.3783   4.3904   8.1643  10.2434  10.7759  12.5470
    15.5097  16.6366

          k = 0.5833-0.2500 0.5833 (  1602 PWs)   bands (ev):

    -3.1971  -0.6181   3.1628   4.5758   8.3098  10.1939  10.5487  14.0981
    14.6560  14.9396

          k = 0.5000-0.1667 0.5000 (  1610 PWs)   bands (ev):

    -3.7013   0.1467   3.1049   4.8729   8.5774  10.2484  10.3840  13.3949
    13.4814  15.5093

          k = 0.4167-0.0833 0.4167 (  1613 PWs)   bands (ev):

    -4.3297   1.3000   3.2484   5.2433   8.9135  10.1590  10.3077  12.2342
    12.5043  16.3597

          k = 0.3333 0.0000 0.3333 (  1604 PWs)   bands (ev):

    -4.8644   2.4460   3.7409   5.6096   9.1748   9.7175   9.9821  11.7674
    12.2546  15.4916

          k = 0.0000 0.5000 0.0000 (  1612 PWs)   bands (ev):

    -4.7316   2.6510   4.2745   4.2745   7.2536   9.2457  11.9172  11.9172
    14.1092  15.1080

          k =-0.0833 0.5833-0.0833 (  1617 PWs)   bands (ev):

    -4.2931   1.7396   3.8033   4.0270   7.3373   8.8922  12.1901  12.3970
    15.3983  15.6715

          k =-0.1667 0.6667-0.1667 (  1620 PWs)   bands (ev):

    -3.7148   0.7069   3.1641   3.9197   7.5517   9.3710  12.0425  12.3527
    16.7609  17.0498

          k = 0.7500-0.2500 0.7500 (  1617 PWs)   bands (ev):

    -3.0864  -0.2247   2.6131   3.9589   7.6370  10.5731  11.8683  12.0739
    16.3109  16.6953

          k = 0.6667-0.1667 0.6667 (  1607 PWs)   bands (ev):

    -2.7588  -0.6433   2.2473   4.1402   7.8169  11.5753  11.7765  12.2946
    14.8678  14.9278

          k = 0.5833-0.0833 0.5833 (  1611 PWs)   bands (ev):

    -3.1381  -0.1452   2.1257   4.4470   8.1441  11.4780  11.5584  13.2847
    13.4470  14.0556

          k = 0.5000 0.0000 0.5000 (  1604 PWs)   bands (ev):

    -3.7643   0.6818   2.3904   4.8419   8.5749  10.9477  11.2590  12.2439
    12.5959  15.7547

          k = 0.0000 0.6667 0.0000 (  1624 PWs)   bands (ev):

    -3.9059   1.1563   3.7445   3.7445   6.8438   8.1016  13.4183  13.4183
    15.8537  16.0446

          k =-0.0833 0.7500-0.0833 (  1618 PWs)   bands (ev):

    -3.3688   0.3690   3.2513   3.6013   7.0060   7.9745  13.7253  13.7864
    16.9544  17.1536

          k = 0.8333-0.1667 0.8333 (  1619 PWs)   bands (ev):

    -2.7361  -0.4016   2.5133   3.6078   7.1764   8.8393  13.6020  13.6040
    16.7322  16.8573

          k = 0.7500-0.0833 0.7500 (  1620 PWs)   bands (ev):

    -2.2626  -0.8961   1.9280   3.7625   7.3534  10.2896  13.2528  13.4278
    15.0287  15.0900

          k = 0.6667 0.0000 0.6667 (  1612 PWs)   bands (ev):

    -2.5363  -0.6096   1.7239   4.0529   7.6829  11.9263  12.6325  13.1986
    13.5299  13.8206

          k = 0.0000 0.8333 0.0000 (  1628 PWs)   bands (ev):

    -2.8723  -0.2979   3.4180   3.4180   6.6841   7.2845  14.9732  14.9732
    17.2441  17.5523

          k = 0.9167-0.0833 0.9167 (  1622 PWs)   bands (ev):

    -2.2559  -0.9876   2.9785   3.3843   6.8841   7.4571  15.2184  15.2997
    16.9892  17.0635

          k = 0.8333 0.0000 0.8333 (  1614 PWs)   bands (ev):

    -1.7957  -1.3941   2.2975   3.5021   7.0438   8.6660  14.6728  15.1622
    15.2463  15.6083

          k = 0.0000-1.0000 0.0000 (  1604 PWs)   bands (ev):

    -1.6570  -1.6570   3.3080   3.3080   6.8195   6.8195  16.2376  16.2376
    17.1415  17.1415

          k =-0.1667 0.3333 0.0000 (  1603 PWs)   bands (ev):

    -5.2143   3.4378   4.5268   5.4656   8.4792   9.6846  10.3127  11.0315
    12.9769  14.3253

          k =-0.2500 0.4167-0.0833 (  1607 PWs)   bands (ev):

    -4.7759   2.1927   3.9912   5.1889   8.7557   9.6539  10.7153  11.0179
    13.4535  15.4218

          k =-0.3333 0.5000-0.1667 (  1604 PWs)   bands (ev):

    -4.1975   0.8852   3.7214   4.8594   8.7893   9.5299  10.7712  11.6694
    14.3293  15.9274

          k = 0.5833-0.4167 0.7500 (  1612 PWs)   bands (ev):

    -3.5711  -0.2110   3.5942   4.6113   8.7306   9.3364  10.6881  12.8862
    15.1683  15.7583

          k = 0.5000-0.3333 0.6667 (  1602 PWs)   bands (ev):

    -3.2289  -0.7136   3.5588   4.5190   8.7087   9.2498  10.6422  14.1817
    14.3888  16.0187

          k =-0.1667 0.5000 0.0000 (  1617 PWs)   bands (ev):

    -4.6205   2.2459   3.8272   4.5389   7.9214   9.6430  10.9641  11.7936
    14.2802  15.5708

          k =-0.2500 0.5833-0.0833 (  1611 PWs)   bands (ev):

    -4.0853   1.1923   3.2857   4.2474   8.2522   9.8668  10.7001  12.1743
    14.9895  17.0548

          k = 0.6667-0.3333 0.8333 (  1617 PWs)   bands (ev):

    -3.4558   0.1318   2.9275   4.0348   8.3692  10.3428  10.9375  12.1509
    15.9648  16.2005

          k = 0.5833-0.2500 0.7500 (  1607 PWs)   bands (ev):

    -2.9541  -0.5806   2.6805   4.0166   8.4965  10.0680  12.0398  12.4065
    14.4037  16.6800

          k = 0.5000-0.1667 0.6667 (  1605 PWs)   bands (ev):

    -3.0912  -0.3917   2.5606   4.1907   8.7479   9.8789  11.9555  12.7915
    14.1112  15.4424

          k = 0.4167-0.0833 0.5833 (  1610 PWs)   bands (ev):

    -3.6862   0.4919   2.6333   4.5104   9.1106   9.7407  11.4162  11.9104
    14.1395  15.7827

          k = 0.3333 0.0000 0.5000 (  1606 PWs)   bands (ev):

    -4.2923   1.4754   3.0499   4.8956   9.3527   9.4948  10.7903  11.4852
    13.4240  16.9032

          k =-0.1667 0.6667-0.0000 (  1626 PWs)   bands (ev):

    -3.8066   0.9804   3.3149   3.7480   7.5170   8.5921  12.2046  13.3655
    15.7418  17.1639

          k = 0.7500-0.2500 0.9167 (  1621 PWs)   bands (ev):

    -3.1976   0.1428   2.7201   3.5283   7.8485   9.1297  11.8986  13.7273
    16.3592  16.6918

          k = 0.6667-0.1667 0.8333 (  1616 PWs)   bands (ev):

    -2.6037  -0.5762   2.1938   3.5363   8.0007  10.4279  11.6017  13.6535
    14.5796  17.0352

          k = 0.5833-0.0833 0.7500 (  1614 PWs)   bands (ev):

    -2.5311  -0.6484   1.9020   3.7365   8.2587  11.1896  12.1807  12.8633
    13.5498  15.4946

          k = 0.5000 0.0000 0.6667 (  1621 PWs)   bands (ev):

    -3.0727  -0.0550   1.9890   4.0845   8.6538  10.7830  11.6258  12.9810
    14.0797  14.3582

          k = 0.8333-0.1667 1.0000 (  1617 PWs)   bands (ev):

    -2.7941  -0.3339   3.0298   3.2285   7.3415   7.8478  13.5770  14.9679
    16.7250  17.2361

          k = 0.7500-0.0833 0.9167 (  1620 PWs)   bands (ev):

    -2.1613  -0.9785   2.3918   3.1839   7.6314   8.7635  13.2533  14.7318
    15.4153  17.1084

          k = 0.6667 0.0000 0.8333 (  1620 PWs)   bands (ev):

    -2.0032  -1.0939   1.8875   3.3825   7.8699  10.2966  12.7970  13.1762
    14.9473  15.8244

          k =-0.1667-1.0000 0.0000 (  1622 PWs)   bands (ev):

    -1.6181  -1.6181   2.9946   2.9946   7.4399   7.4399  15.0435  15.0435
    16.7450  16.7450

          k = 0.6667-0.3333 1.0000 (  1610 PWs)   bands (ev):

    -3.5180   0.5207   2.5760   3.8631   8.9860   9.8334  10.3689  13.2148
    15.1226  16.0298

          k = 0.5833-0.2500 0.9167 (  1611 PWs)   bands (ev):

    -2.8897  -0.2524   2.2265   3.5223   9.3555   9.8964  10.8817  13.6377
    14.2243  16.0962

          k = 0.5000-0.1667 0.8333 (  1610 PWs)   bands (ev):

    -2.5259  -0.6852   2.1334   3.3915   9.4816   9.6878  12.2268  12.6488
    13.6968  17.2415

          k = 0.6667-0.1667 1.0000 (  1618 PWs)   bands (ev):

    -2.5779  -0.4778   2.3756   2.9996   8.8102   9.2063  11.5165  14.4413
    14.9956  16.8598

          k = 0.5833-0.0833 0.9167 (  1615 PWs)   bands (ev):

    -2.0508  -0.9862   2.0559   2.8437   9.1488  10.4126  11.2408  12.6247
    15.3682  17.2594

          k = 0.5000 0.0000 0.8333 (  1612 PWs)   bands (ev):

    -2.2832  -0.7561   1.9297   3.0709   9.4514  10.6068  11.1252  12.3728
    14.9502  16.3438

          k =-0.3333-1.0000 0.0000 (  1618 PWs)   bands (ev):

    -1.5345  -1.5345   2.5000   2.5000   8.8726   8.8726  12.8939  12.8939
    16.7168  16.7168

          k =-0.5000-1.0000 0.0000 (  1628 PWs)   bands (ev):

    -1.4893  -1.4893   2.2888   2.2888  10.3954  10.3954  11.1329  11.1329
    16.7216  16.7216

     the Fermi energy is     7.4888 ev

     Writing output data file Si.save

     init_run     :      0.18s CPU      0.20s WALL (       1 calls)
     electrons    :     35.56s CPU     37.07s WALL (       1 calls)

     Called by init_run:
     wfcinit      :      0.00s CPU      0.00s WALL (       1 calls)
     potinit      :      0.05s CPU      0.05s WALL (       1 calls)

     Called by electrons:
     c_bands      :     35.42s CPU     36.93s WALL (       1 calls)
     v_of_rho     :      0.04s CPU      0.05s WALL (       1 calls)

     Called by c_bands:
     init_us_2    :      0.11s CPU      0.12s WALL (      72 calls)
     cegterg      :     27.56s CPU     28.87s WALL (      88 calls)

     Called by *egterg:
     h_psi        :     29.80s CPU     31.07s WALL (    1485 calls)
     g_psi        :      0.07s CPU      0.07s WALL (    1325 calls)
     cdiaghg      :      0.60s CPU      0.63s WALL (    1397 calls)

     Called by h_psi:
     add_vuspsi   :      0.81s CPU      0.83s WALL (    1485 calls)

     General routines
     calbec       :      0.94s CPU      0.98s WALL (    1485 calls)
     fft          :      0.02s CPU      0.02s WALL (      10 calls)
     fftw         :     26.53s CPU     27.67s WALL (   21586 calls)
     davcio       :      0.00s CPU      0.03s WALL (      72 calls)

     Parallel routines
     fft_scatter  :      0.65s CPU      0.66s WALL (   21596 calls)

     PWSCF        :    37.86s CPU        39.45s WALL


   This run was terminated on:  17: 3:37  13Feb2023            

=------------------------------------------------------------------------------=
   JOB DONE.
=------------------------------------------------------------------------------=
