
     Program PWSCF v.5.1 starts on 16Feb2023 at  1:59:34 

     This program is part of the open-source Quantum ESPRESSO suite
     for quantum simulation of materials; please cite
         "P. Giannozzi et al., J. Phys.:Condens. Matter 21 395502 (2009);
          URL http://www.quantum-espresso.org", 
     in publications or presentations arising from this work. More details at
     http://www.quantum-espresso.org/quote

     Parallel version (MPI), running on     1 processors
     Waiting for input...
     Reading input from standard input

     Current dimensions of program PWSCF are:
     Max number of different atomic species (ntypx) = 10
     Max number of k-points (npk) =  40000
     Max angular momentum in pseudopotentials (lmaxx) =  3

     Atomic positions and unit cell read from directory:
     ./out/Si.save/

               file Si.pbe-mt_fhi.UPF: wavefunction(s)  4f renormalized
               file P.pbe-mt_fhi.UPF: wavefunction(s)  4f renormalized

     Subspace diagonalization in iterative solution of the eigenvalue problem:
     a serial algorithm will be used


     G-vector sticks info
     --------------------
     sticks:   dense  smooth     PW     G-vecs:    dense   smooth      PW
     Sum         733     733    211                12939    12939    2109



     bravais-lattice index     =            2
     lattice parameter (alat)  =      10.2623  a.u.
     unit-cell volume          =     270.1967 (a.u.)^3
     number of atoms/cell      =            2
     number of atomic types    =            2
     number of electrons       =         8.00
     number of Kohn-Sham states=           10
     kinetic-energy cutoff     =      50.0000  Ry
     charge density cutoff     =     200.0000  Ry
     Exchange-correlation      = PBE ( 1  4  3  4 0)

     celldm(1)=  10.262347  celldm(2)=   0.000000  celldm(3)=   0.000000
     celldm(4)=   0.000000  celldm(5)=   0.000000  celldm(6)=   0.000000

     crystal axes: (cart. coord. in units of alat)
               a(1) = (  -0.500000   0.000000   0.500000 )  
               a(2) = (   0.000000   0.500000   0.500000 )  
               a(3) = (  -0.500000   0.500000   0.000000 )  

     reciprocal axes: (cart. coord. in units 2 pi/alat)
               b(1) = ( -1.000000 -1.000000  1.000000 )  
               b(2) = (  1.000000  1.000000  1.000000 )  
               b(3) = ( -1.000000  1.000000 -1.000000 )  


     PseudoPot. # 1 for Si read from file:
     /home/acedemo/psudo/Si.pbe-mt_fhi.UPF
     MD5 check sum: 259057c2adf9952f9ced37ae3d9e311d
     Pseudo is Norm-conserving, Zval =  4.0
     Generated using FHI98PP, converted with fhi2upf.x v.5.0.2
     Using radial grid of  495 points,  3 beta functions with: 
                l(1) =   0
                l(2) =   1
                l(3) =   3

     PseudoPot. # 2 for  P read from file:
     /home/acedemo/psudo/P.pbe-mt_fhi.UPF
     MD5 check sum: 7191c457fb61afa58d0f00d0e4a443c1
     Pseudo is Norm-conserving, Zval =  5.0
     Generated using FHI98PP, converted with fhi2upf.x v.5.0.2
     Using radial grid of  499 points,  3 beta functions with: 
                l(1) =   0
                l(2) =   1
                l(3) =   3

     atomic species   valence    mass     pseudopotential
        Si             4.00    28.08550     Si( 1.00)
        P              5.00    30.97376      P( 1.00)

     24 Sym. Ops. (no inversion) found



   Cartesian axes

     site n.     atom                  positions (alat units)
         1           Si  tau(   1) = (   0.0000000   0.0000000   0.0000000  )
         2           P   tau(   2) = (   0.2500000   0.2500000   0.2500000  )

     number of k points=    51  Marzari-Vanderbilt smearing, width (Ry)=  0.0500
                       cart. coord. in units 2pi/alat
        k(    1) = (   0.5000000   0.5000000   0.5000000), wk =   0.0000000
        k(    2) = (   0.4500000   0.4500000   0.4500000), wk =   0.0014779
        k(    3) = (   0.4000000   0.4000000   0.4000000), wk =   0.0029558
        k(    4) = (   0.3500000   0.3500000   0.3500000), wk =   0.0044337
        k(    5) = (   0.3000000   0.3000000   0.3000000), wk =   0.0059116
        k(    6) = (   0.2500000   0.2500000   0.2500000), wk =   0.0073895
        k(    7) = (   0.2000000   0.2000000   0.2000000), wk =   0.0088674
        k(    8) = (   0.1500000   0.1500000   0.1500000), wk =   0.0103453
        k(    9) = (   0.1000000   0.1000000   0.1000000), wk =   0.0118232
        k(   10) = (   0.0500000   0.0500000   0.0500000), wk =   0.0133011
        k(   11) = (   0.0000000   0.0000000   0.0000000), wk =   0.0147790
        k(   12) = (   0.0000000   0.1000000   0.0000000), wk =   0.0168691
        k(   13) = (   0.0000000   0.2000000   0.0000000), wk =   0.0189591
        k(   14) = (   0.0000000   0.3000000   0.0000000), wk =   0.0210492
        k(   15) = (   0.0000000   0.4000000   0.0000000), wk =   0.0231392
        k(   16) = (   0.0000000   0.5000000   0.0000000), wk =   0.0252293
        k(   17) = (   0.0000000   0.6000000   0.0000000), wk =   0.0273194
        k(   18) = (   0.0000000   0.7000000   0.0000000), wk =   0.0294094
        k(   19) = (   0.0000000   0.8000000   0.0000000), wk =   0.0314995
        k(   20) = (   0.0000000   0.9000000   0.0000000), wk =   0.0335896
        k(   21) = (   0.0000000   1.0000000   0.0000000), wk =   0.0356796
        k(   22) = (   0.0000000   0.9750000   0.0750000), wk =   0.0370621
        k(   23) = (   0.0000000   0.9500000   0.1500000), wk =   0.0384445
        k(   24) = (  -0.0000000   0.9250000   0.2250000), wk =   0.0398270
        k(   25) = (  -0.0000000   0.9000000   0.3000000), wk =   0.0412094
        k(   26) = (   0.0000000   0.8750000   0.3750000), wk =   0.0425919
        k(   27) = (   0.0000000   0.8500000   0.4500000), wk =   0.0439743
        k(   28) = (   0.0000000   0.8250000   0.5250000), wk =   0.0453568
        k(   29) = (  -0.0000000   0.8000000   0.6000000), wk =   0.0467392
        k(   30) = (  -0.0000000   0.7750000   0.6750000), wk =   0.0481217
        k(   31) = (   0.0000000   0.7500000   0.7500000), wk =   0.0495041
        k(   32) = (   0.0000000   0.7250000   0.7750000), wk =   0.0500266
        k(   33) = (   0.0000000   0.7000000   0.8000000), wk =   0.0505491
        k(   34) = (   0.0000000   0.6750000   0.8250000), wk =   0.0510717
        k(   35) = (   0.0000000   0.6500000   0.8500000), wk =   0.0515942
        k(   36) = (   0.0000000   0.6250000   0.8750000), wk =   0.0521167
        k(   37) = (   0.0000000   0.6000000   0.9000000), wk =   0.0526392
        k(   38) = (   0.0000000   0.5750000   0.9250000), wk =   0.0531617
        k(   39) = (   0.0000000   0.5500000   0.9500000), wk =   0.0536842
        k(   40) = (   0.0000000   0.5250000   0.9750000), wk =   0.0542067
        k(   41) = (   0.0000000   0.5000000   1.0000000), wk =   0.0547293
        k(   42) = (   0.0000000   0.4500000   0.9000000), wk =   0.0574942
        k(   43) = (  -0.0000000   0.4000000   0.8000000), wk =   0.0602591
        k(   44) = (  -0.0000000   0.3500000   0.7000000), wk =   0.0630239
        k(   45) = (  -0.0000000   0.3000000   0.6000000), wk =   0.0657888
        k(   46) = (   0.0000000   0.2500000   0.5000000), wk =   0.0685537
        k(   47) = (   0.0000000   0.2000000   0.4000000), wk =   0.0713186
        k(   48) = (   0.0000000   0.1500000   0.3000000), wk =   0.0740835
        k(   49) = (  -0.0000000   0.1000000   0.2000000), wk =   0.0768484
        k(   50) = (  -0.0000000   0.0500000   0.1000000), wk =   0.0796133
        k(   51) = (   0.0000000   0.0000000   0.0000000), wk =   0.0823782

     Dense  grid:    12939 G-vectors     FFT dimensions: (  36,  36,  36)

     Largest allocated arrays     est. size (Mb)     dimensions
        Kohn-Sham Wavefunctions         0.25 Mb     (    1639,   10)
        NL pseudopotentials             0.55 Mb     (    1639,   22)
        Each V/rho on FFT grid          0.71 Mb     (   46656)
        Each G-vector array             0.10 Mb     (   12939)
        G-vector shells                 0.00 Mb     (     180)
     Largest temporary arrays     est. size (Mb)     dimensions
        Auxiliary wavefunctions         1.00 Mb     (    1639,   40)
        Each subspace H/S matrix        0.02 Mb     (      40,   40)
        Each <psi_i|beta_j> matrix      0.00 Mb     (      22,   10)

     The potential is recalculated from file :
     ./out/Si.save/charge-density.dat

     Starting wfc are   32 randomized atomic wfcs

     Band Structure Calculation
     Davidson diagonalization with overlap

     ethr =  2.00E-11,  avg # of iterations = 17.0

     total cpu time spent up to now is       31.1 secs

     End of band structure calculation

          k = 0.5000 0.5000 0.5000 (  1622 PWs)   bands (ev):

    -4.9939  -1.2606   3.9945   3.9945   6.7510   9.6186   9.6186  14.2755
    16.8693  16.8860

          k = 0.4500 0.4500 0.4500 (  1610 PWs)   bands (ev):

    -5.0755  -1.1221   4.0113   4.0113   6.7717   9.6255   9.6255  14.1850
    16.1553  16.1553

          k = 0.4000 0.4000 0.4000 (  1616 PWs)   bands (ev):

    -5.2876  -0.7399   4.0613   4.0613   6.8329   9.6399   9.6399  13.8364
    15.3426  15.3426

          k = 0.3500 0.3500 0.3500 (  1610 PWs)   bands (ev):

    -5.5661  -0.1801   4.1429   4.1429   6.9315   9.6427   9.6427  13.1802
    14.6593  14.6593

          k = 0.3000 0.3000 0.3000 (  1615 PWs)   bands (ev):

    -5.8591   0.5022   4.2533   4.2533   7.0616   9.6049   9.6049  12.3478
    14.1479  14.1479

          k = 0.2500 0.2500 0.2500 (  1618 PWs)   bands (ev):

    -6.1348   1.2696   4.3875   4.3875   7.2118   9.4979   9.4979  11.4557
    13.8413  13.8413

          k = 0.2000 0.2000 0.2000 (  1606 PWs)   bands (ev):

    -6.3750   2.0952   4.5374   4.5374   7.3595   9.3157   9.3157  10.5634
    13.7452  13.7452

          k = 0.1500 0.1500 0.1500 (  1600 PWs)   bands (ev):

    -6.5692   2.9541   4.6901   4.6901   7.4565   9.0873   9.0873   9.7268
    13.8242  13.8242

          k = 0.1000 0.1000 0.1000 (  1606 PWs)   bands (ev):

    -6.7113   3.8102   4.8270   4.8270   7.3928   8.8651   8.8651   9.0606
    14.0066  14.0066

          k = 0.0500 0.0500 0.0500 (  1630 PWs)   bands (ev):

    -6.7979   4.5781   4.9243   4.9243   7.0611   8.7037   8.7037   8.7216
    14.1937  14.1937

          k = 0.0000 0.0000 0.0000 (  1639 PWs)   bands (ev):

    -6.8269   4.9600   4.9600   4.9600   6.7930   8.6446   8.6446   8.6446
    14.2748  14.2748

          k = 0.0000 0.1000 0.0000 (  1627 PWs)   bands (ev):

    -6.7882   4.5672   4.8524   4.8524   7.1732   8.5704   8.8028   8.8028
    14.0176  14.3223

          k = 0.0000 0.2000 0.0000 (  1599 PWs)   bands (ev):

    -6.6724   3.8030   4.5783   4.5783   7.8413   8.4121   9.2280   9.2280
    13.4359  14.4645

          k = 0.0000 0.3000 0.0000 (  1607 PWs)   bands (ev):

    -6.4814   2.9616   4.2259   4.2259   7.9611   8.6875   9.8304   9.8304
    12.8630  14.7014

          k = 0.0000 0.4000 0.0000 (  1607 PWs)   bands (ev):

    -6.2178   2.1120   3.8605   3.8605   7.6877   9.0450  10.5422  10.5422
    12.6268  15.0323

          k = 0.0000 0.5000 0.0000 (  1612 PWs)   bands (ev):

    -5.8864   1.2763   3.5195   3.5195   7.4136   8.9667  11.3231  11.3231
    12.9405  15.4568

          k = 0.0000 0.6000 0.0000 (  1620 PWs)   bands (ev):

    -5.4953   0.4682   3.2237   3.2237   7.1892   8.5872  12.1484  12.1484
    13.6670  15.9736

          k = 0.0000 0.7000 0.0000 (  1632 PWs)   bands (ev):

    -5.0587  -0.2953   2.9850   2.9850   7.0366   8.1323  12.9982  12.9982
    14.5787  16.5810

          k = 0.0000 0.8000 0.0000 (  1624 PWs)   bands (ev):

    -4.6067  -0.9823   2.8106   2.8106   6.9694   7.7162  13.8437  13.8437
    15.5445  17.2743

          k = 0.0000 0.9000 0.0000 (  1608 PWs)   bands (ev):

    -4.2119  -1.5187   2.7045   2.7045   6.9939   7.3869  14.6031  14.6031
    16.4586  17.6326

          k = 0.0000 1.0000 0.0000 (  1604 PWs)   bands (ev):

    -4.0364  -1.7416   2.6688   2.6688   7.0700   7.2071  14.9775  14.9775
    16.9742  17.2410

          k = 0.0000 0.9750 0.0750 (  1618 PWs)   bands (ev):

    -4.0457  -1.7193   2.6228   2.6332   7.1613   7.3275  14.7486  14.8488
    16.4919  16.9684

          k = 0.0000 0.9500 0.1500 (  1622 PWs)   bands (ev):

    -4.0705  -1.6587   2.4957   2.5472   7.4357   7.6574  14.0240  14.5434
    16.0357  16.7218

          k =-0.0000 0.9250 0.2250 (  1622 PWs)   bands (ev):

    -4.1042  -1.5756   2.3173   2.4554   7.8727   8.1452  13.0410  14.1141
    15.6000  16.6841

          k =-0.0000 0.9000 0.3000 (  1623 PWs)   bands (ev):

    -4.1388  -1.4919   2.1213   2.4020   8.4359   8.7473  12.0043  13.5914
    15.2091  16.6409

          k = 0.0000 0.8750 0.3750 (  1614 PWs)   bands (ev):

    -4.1674  -1.4283   1.9355   2.4183   9.0813   9.4208  11.0145  13.0206
    14.8653  16.4741

          k = 0.0000 0.8500 0.4500 (  1612 PWs)   bands (ev):

    -4.1850  -1.3983   1.7790   2.5156   9.5647  10.0409  10.4186  12.4552
    14.5487  16.1825

          k = 0.0000 0.8250 0.5250 (  1611 PWs)   bands (ev):

    -4.1887  -1.4038   1.6644   2.6804   8.9791  10.7219  10.9124  12.0118
    14.2451  15.8102

          k =-0.0000 0.8000 0.6000 (  1614 PWs)   bands (ev):

    -4.1775  -1.4370   1.5993   2.8707   8.2766  10.9646  11.5421  12.2023
    13.9516  15.4144

          k =-0.0000 0.7750 0.6750 (  1621 PWs)   bands (ev):

    -4.1522  -1.4858   1.5878   3.0156   7.7581  10.5458  12.3694  12.8549
    13.6863  15.0905

          k = 0.0000 0.7500 0.7500 (  1624 PWs)   bands (ev):

    -4.1154  -1.5385   1.6314   3.0316   7.5224  10.0857  12.9993  13.3017
    13.6398  15.0718

          k = 0.0000 0.7250 0.7750 (  1616 PWs)   bands (ev):

    -4.1129  -1.5391   1.6352   3.0087   7.5636  10.0888  12.8847  13.2316
    13.7530  15.1413

          k = 0.0000 0.7000 0.8000 (  1621 PWs)   bands (ev):

    -4.1057  -1.5408   1.6466   2.9432   7.6842  10.0981  12.6503  13.0474
    13.9842  15.3214

          k = 0.0000 0.6750 0.8250 (  1620 PWs)   bands (ev):

    -4.0941  -1.5439   1.6655   2.8435   7.8762  10.1131  12.3839  12.7976
    14.2458  15.5604

          k = 0.0000 0.6500 0.8500 (  1616 PWs)   bands (ev):

    -4.0787  -1.5485   1.6916   2.7205   8.1287  10.1333  12.1087  12.5166
    14.5139  15.8175

          k = 0.0000 0.6250 0.8750 (  1616 PWs)   bands (ev):

    -4.0606  -1.5547   1.7248   2.5856   8.4309  10.1574  11.8329  12.2244
    14.7801  16.0609

          k = 0.0000 0.6000 0.9000 (  1613 PWs)   bands (ev):

    -4.0409  -1.5625   1.7644   2.4492   8.7721  10.1833  11.5605  11.9337
    15.0393  16.2588

          k = 0.0000 0.5750 0.9250 (  1615 PWs)   bands (ev):

    -4.0215  -1.5713   1.8097   2.3202   9.1419  10.2070  11.2953  11.6553
    15.2866  16.3758

          k = 0.0000 0.5500 0.9500 (  1615 PWs)   bands (ev):

    -4.0043  -1.5801   1.8585   2.2068   9.5265  10.2204  11.0441  11.4031
    15.5139  16.3914

          k = 0.0000 0.5250 0.9750 (  1615 PWs)   bands (ev):

    -3.9918  -1.5873   1.9047   2.1199   9.8954  10.2073  10.8274  11.2020
    15.7008  16.3299

          k = 0.0000 0.5000 1.0000 (  1628 PWs)   bands (ev):

    -3.9871  -1.5904   1.9272   2.0835  10.1360  10.1419  10.7245  11.1093
    15.7858  16.2808

          k = 0.0000 0.4500 0.9000 (  1616 PWs)   bands (ev):

    -4.0802  -1.5034   1.8228   2.3311   9.6976  10.0163  10.5561  12.0303
    15.0461  16.4551

          k =-0.0000 0.4000 0.8000 (  1616 PWs)   bands (ev):

    -4.3663  -1.2081   1.8717   2.6923   9.2652   9.7270  10.3883  13.2922
    14.2131  15.8953

          k =-0.0000 0.3500 0.7000 (  1618 PWs)   bands (ev):

    -4.7821  -0.7185   2.0974   3.0864   8.8928   9.4855  10.3508  12.8817
    14.7150  15.5606

          k =-0.0000 0.3000 0.6000 (  1609 PWs)   bands (ev):

    -5.2419  -0.0769   2.4603   3.4854   8.6059   9.2716  10.4369  11.9872
    14.1924  16.6754

          k = 0.0000 0.2500 0.5000 (  1610 PWs)   bands (ev):

    -5.6860   0.6849   2.9217   3.8655   8.4106   9.0456  10.6067  11.1425
    13.5543  15.8839

          k = 0.0000 0.2000 0.4000 (  1613 PWs)   bands (ev):

    -6.0786   1.5458   3.4424   4.2092   8.2905   8.7905  10.3723  10.6839
    13.0483  14.9692

          k = 0.0000 0.1500 0.3000 (  1607 PWs)   bands (ev):

    -6.3989   2.4863   3.9769   4.5054   8.1496   8.5788   9.7065  10.2710
    13.0114  14.4983

          k =-0.0000 0.1000 0.2000 (  1600 PWs)   bands (ev):

    -6.6345   3.4762   4.4648   4.7428   7.7959   8.5507   9.1611   9.4841
    13.4613  14.3229

          k =-0.0000 0.0500 0.1000 (  1623 PWs)   bands (ev):

    -6.7785   4.4306   4.8240   4.9025   7.2178   8.6110   8.7840   8.8544
    14.0123  14.2796

          k = 0.0000 0.0000 0.0000 (  1639 PWs)   bands (ev):

    -6.8269   4.9600   4.9600   4.9600   6.7930   8.6446   8.6446   8.6446
    14.2748  14.2748

     Writing output data file Si.save

     init_run     :      0.30s CPU      0.32s WALL (       1 calls)
     electrons    :     27.29s CPU     28.64s WALL (       1 calls)

     Called by init_run:
     wfcinit      :      0.00s CPU      0.00s WALL (       1 calls)
     potinit      :      0.06s CPU      0.07s WALL (       1 calls)

     Called by electrons:
     c_bands      :     27.29s CPU     28.64s WALL (       1 calls)
     v_of_rho     :      0.05s CPU      0.05s WALL (       1 calls)

     Called by c_bands:
     init_us_2    :      0.09s CPU      0.10s WALL (      51 calls)
     cegterg      :     21.11s CPU     22.18s WALL (      61 calls)

     Called by *egterg:
     h_psi        :     22.93s CPU     24.02s WALL (     979 calls)
     g_psi        :      0.06s CPU      0.06s WALL (     867 calls)
     cdiaghg      :      0.43s CPU      0.47s WALL (     918 calls)

     Called by h_psi:
     add_vuspsi   :      0.65s CPU      0.68s WALL (     979 calls)

     General routines
     calbec       :      0.74s CPU      0.80s WALL (     979 calls)
     fft          :      0.03s CPU      0.03s WALL (      10 calls)
     fftw         :     20.29s CPU     21.26s WALL (   15254 calls)
     davcio       :      0.00s CPU      0.00s WALL (      51 calls)

     Parallel routines
     fft_scatter  :      0.49s CPU      0.50s WALL (   15264 calls)

     PWSCF        :    29.56s CPU        31.29s WALL


   This run was terminated on:   2: 0: 5  16Feb2023            

=------------------------------------------------------------------------------=
   JOB DONE.
=------------------------------------------------------------------------------=
