
     Program PWSCF v.5.1 starts on 16Feb2023 at  1:58:45 

     This program is part of the open-source Quantum ESPRESSO suite
     for quantum simulation of materials; please cite
         "P. Giannozzi et al., J. Phys.:Condens. Matter 21 395502 (2009);
          URL http://www.quantum-espresso.org", 
     in publications or presentations arising from this work. More details at
     http://www.quantum-espresso.org/quote

     Parallel version (MPI), running on     1 processors
     Waiting for input...
     Reading input from standard input

     Current dimensions of program PWSCF are:
     Max number of different atomic species (ntypx) = 10
     Max number of k-points (npk) =  40000
     Max angular momentum in pseudopotentials (lmaxx) =  3

     Atomic positions and unit cell read from directory:
     ./out/Si.save/

               file Si.pbe-mt_fhi.UPF: wavefunction(s)  4f renormalized
               file P.pbe-mt_fhi.UPF: wavefunction(s)  4f renormalized

     Subspace diagonalization in iterative solution of the eigenvalue problem:
     a serial algorithm will be used


     G-vector sticks info
     --------------------
     sticks:   dense  smooth     PW     G-vecs:    dense   smooth      PW
     Sum         733     733    223                12939    12939    2229



     bravais-lattice index     =            2
     lattice parameter (alat)  =      10.2623  a.u.
     unit-cell volume          =     270.1967 (a.u.)^3
     number of atoms/cell      =            2
     number of atomic types    =            2
     number of electrons       =         8.00
     number of Kohn-Sham states=           10
     kinetic-energy cutoff     =      50.0000  Ry
     charge density cutoff     =     200.0000  Ry
     Exchange-correlation      = PBE ( 1  4  3  4 0)

     celldm(1)=  10.262347  celldm(2)=   0.000000  celldm(3)=   0.000000
     celldm(4)=   0.000000  celldm(5)=   0.000000  celldm(6)=   0.000000

     crystal axes: (cart. coord. in units of alat)
               a(1) = (  -0.500000   0.000000   0.500000 )  
               a(2) = (   0.000000   0.500000   0.500000 )  
               a(3) = (  -0.500000   0.500000   0.000000 )  

     reciprocal axes: (cart. coord. in units 2 pi/alat)
               b(1) = ( -1.000000 -1.000000  1.000000 )  
               b(2) = (  1.000000  1.000000  1.000000 )  
               b(3) = ( -1.000000  1.000000 -1.000000 )  


     PseudoPot. # 1 for Si read from file:
     /home/acedemo/psudo/Si.pbe-mt_fhi.UPF
     MD5 check sum: 259057c2adf9952f9ced37ae3d9e311d
     Pseudo is Norm-conserving, Zval =  4.0
     Generated using FHI98PP, converted with fhi2upf.x v.5.0.2
     Using radial grid of  495 points,  3 beta functions with: 
                l(1) =   0
                l(2) =   1
                l(3) =   3

     PseudoPot. # 2 for  P read from file:
     /home/acedemo/psudo/P.pbe-mt_fhi.UPF
     MD5 check sum: 7191c457fb61afa58d0f00d0e4a443c1
     Pseudo is Norm-conserving, Zval =  5.0
     Generated using FHI98PP, converted with fhi2upf.x v.5.0.2
     Using radial grid of  499 points,  3 beta functions with: 
                l(1) =   0
                l(2) =   1
                l(3) =   3

     atomic species   valence    mass     pseudopotential
        Si             4.00    28.08550     Si( 1.00)
        P              5.00    30.97376      P( 1.00)

     24 Sym. Ops. (no inversion) found



   Cartesian axes

     site n.     atom                  positions (alat units)
         1           Si  tau(   1) = (   0.0000000   0.0000000   0.0000000  )
         2           P   tau(   2) = (   0.2500000   0.2500000   0.2500000  )

     number of k points=    72 (tetrahedron method)
                       cart. coord. in units 2pi/alat
        k(    1) = (   0.0000000   0.0000000   0.0000000), wk =   0.0011574
        k(    2) = (  -0.0833333   0.0833333  -0.0833333), wk =   0.0092593
        k(    3) = (  -0.1666667   0.1666667  -0.1666667), wk =   0.0092593
        k(    4) = (  -0.2500000   0.2500000  -0.2500000), wk =   0.0092593
        k(    5) = (  -0.3333333   0.3333333  -0.3333333), wk =   0.0092593
        k(    6) = (  -0.4166667   0.4166667  -0.4166667), wk =   0.0092593
        k(    7) = (   0.5000000  -0.5000000   0.5000000), wk =   0.0046296
        k(    8) = (   0.0000000   0.1666667   0.0000000), wk =   0.0069444
        k(    9) = (  -0.0833333   0.2500000  -0.0833333), wk =   0.0277778
        k(   10) = (  -0.1666667   0.3333333  -0.1666667), wk =   0.0277778
        k(   11) = (  -0.2500000   0.4166667  -0.2500000), wk =   0.0277778
        k(   12) = (  -0.3333333   0.5000000  -0.3333333), wk =   0.0277778
        k(   13) = (   0.5833333  -0.4166667   0.5833333), wk =   0.0277778
        k(   14) = (   0.5000000  -0.3333333   0.5000000), wk =   0.0277778
        k(   15) = (   0.4166667  -0.2500000   0.4166667), wk =   0.0277778
        k(   16) = (   0.3333333  -0.1666667   0.3333333), wk =   0.0277778
        k(   17) = (   0.2500000  -0.0833333   0.2500000), wk =   0.0277778
        k(   18) = (   0.1666667  -0.0000000   0.1666667), wk =   0.0138889
        k(   19) = (   0.0000000   0.3333333   0.0000000), wk =   0.0069444
        k(   20) = (  -0.0833333   0.4166667  -0.0833333), wk =   0.0277778
        k(   21) = (  -0.1666667   0.5000000  -0.1666667), wk =   0.0277778
        k(   22) = (  -0.2500000   0.5833333  -0.2500000), wk =   0.0277778
        k(   23) = (   0.6666667  -0.3333333   0.6666667), wk =   0.0277778
        k(   24) = (   0.5833333  -0.2500000   0.5833333), wk =   0.0277778
        k(   25) = (   0.5000000  -0.1666667   0.5000000), wk =   0.0277778
        k(   26) = (   0.4166667  -0.0833333   0.4166667), wk =   0.0277778
        k(   27) = (   0.3333333   0.0000000   0.3333333), wk =   0.0138889
        k(   28) = (   0.0000000   0.5000000   0.0000000), wk =   0.0069444
        k(   29) = (  -0.0833333   0.5833333  -0.0833333), wk =   0.0277778
        k(   30) = (  -0.1666667   0.6666667  -0.1666667), wk =   0.0277778
        k(   31) = (   0.7500000  -0.2500000   0.7500000), wk =   0.0277778
        k(   32) = (   0.6666667  -0.1666667   0.6666667), wk =   0.0277778
        k(   33) = (   0.5833333  -0.0833333   0.5833333), wk =   0.0277778
        k(   34) = (   0.5000000   0.0000000   0.5000000), wk =   0.0138889
        k(   35) = (   0.0000000   0.6666667   0.0000000), wk =   0.0069444
        k(   36) = (  -0.0833333   0.7500000  -0.0833333), wk =   0.0277778
        k(   37) = (   0.8333333  -0.1666667   0.8333333), wk =   0.0277778
        k(   38) = (   0.7500000  -0.0833333   0.7500000), wk =   0.0277778
        k(   39) = (   0.6666667   0.0000000   0.6666667), wk =   0.0138889
        k(   40) = (   0.0000000   0.8333333   0.0000000), wk =   0.0069444
        k(   41) = (   0.9166667  -0.0833333   0.9166667), wk =   0.0277778
        k(   42) = (   0.8333333   0.0000000   0.8333333), wk =   0.0138889
        k(   43) = (   0.0000000  -1.0000000   0.0000000), wk =   0.0034722
        k(   44) = (  -0.1666667   0.3333333   0.0000000), wk =   0.0277778
        k(   45) = (  -0.2500000   0.4166667  -0.0833333), wk =   0.0555556
        k(   46) = (  -0.3333333   0.5000000  -0.1666667), wk =   0.0555556
        k(   47) = (   0.5833333  -0.4166667   0.7500000), wk =   0.0555556
        k(   48) = (   0.5000000  -0.3333333   0.6666667), wk =   0.0277778
        k(   49) = (  -0.1666667   0.5000000   0.0000000), wk =   0.0277778
        k(   50) = (  -0.2500000   0.5833333  -0.0833333), wk =   0.0555556
        k(   51) = (   0.6666667  -0.3333333   0.8333333), wk =   0.0555556
        k(   52) = (   0.5833333  -0.2500000   0.7500000), wk =   0.0555556
        k(   53) = (   0.5000000  -0.1666667   0.6666667), wk =   0.0555556
        k(   54) = (   0.4166667  -0.0833333   0.5833333), wk =   0.0555556
        k(   55) = (   0.3333333   0.0000000   0.5000000), wk =   0.0277778
        k(   56) = (  -0.1666667   0.6666667  -0.0000000), wk =   0.0277778
        k(   57) = (   0.7500000  -0.2500000   0.9166667), wk =   0.0555556
        k(   58) = (   0.6666667  -0.1666667   0.8333333), wk =   0.0555556
        k(   59) = (   0.5833333  -0.0833333   0.7500000), wk =   0.0555556
        k(   60) = (   0.5000000   0.0000000   0.6666667), wk =   0.0277778
        k(   61) = (   0.8333333  -0.1666667   1.0000000), wk =   0.0277778
        k(   62) = (   0.7500000  -0.0833333   0.9166667), wk =   0.0555556
        k(   63) = (   0.6666667   0.0000000   0.8333333), wk =   0.0277778
        k(   64) = (  -0.1666667  -1.0000000   0.0000000), wk =   0.0138889
        k(   65) = (   0.6666667  -0.3333333   1.0000000), wk =   0.0277778
        k(   66) = (   0.5833333  -0.2500000   0.9166667), wk =   0.0555556
        k(   67) = (   0.5000000  -0.1666667   0.8333333), wk =   0.0277778
        k(   68) = (   0.6666667  -0.1666667   1.0000000), wk =   0.0277778
        k(   69) = (   0.5833333  -0.0833333   0.9166667), wk =   0.0555556
        k(   70) = (   0.5000000   0.0000000   0.8333333), wk =   0.0277778
        k(   71) = (  -0.3333333  -1.0000000   0.0000000), wk =   0.0138889
        k(   72) = (  -0.5000000  -1.0000000   0.0000000), wk =   0.0069444

     Dense  grid:    12939 G-vectors     FFT dimensions: (  36,  36,  36)

     Largest allocated arrays     est. size (Mb)     dimensions
        Kohn-Sham Wavefunctions         0.25 Mb     (    1639,   10)
        NL pseudopotentials             0.55 Mb     (    1639,   22)
        Each V/rho on FFT grid          0.71 Mb     (   46656)
        Each G-vector array             0.10 Mb     (   12939)
        G-vector shells                 0.00 Mb     (     180)
     Largest temporary arrays     est. size (Mb)     dimensions
        Auxiliary wavefunctions         1.00 Mb     (    1639,   40)
        Each subspace H/S matrix        0.02 Mb     (      40,   40)
        Each <psi_i|beta_j> matrix      0.00 Mb     (      22,   10)

     The potential is recalculated from file :
     ./out/Si.save/charge-density.dat

     Starting wfc are   32 randomized atomic wfcs

     Band Structure Calculation
     Davidson diagonalization with overlap

     ethr =  2.00E-11,  avg # of iterations = 17.8

     total cpu time spent up to now is       36.0 secs

     End of band structure calculation

          k = 0.0000 0.0000 0.0000 (  1639 PWs)   bands (ev):

    -6.8269   4.9600   4.9600   4.9600   6.7930   8.6446   8.6446   8.6446
    14.2748  14.2748

          k =-0.0833 0.0833-0.0833 (  1612 PWs)   bands (ev):

    -6.7464   4.0835   4.8650   4.8650   7.3096   8.8021   8.8021   8.9080
    14.0740  14.0740

          k =-0.1667 0.1667-0.1667 (  1591 PWs)   bands (ev):

    -6.5099   2.6659   4.6399   4.6399   7.4349   9.1656   9.1656   9.9944
    13.7822  13.7822

          k =-0.2500 0.2500-0.2500 (  1618 PWs)   bands (ev):

    -6.1348   1.2696   4.3875   4.3875   7.2118   9.4979   9.4979  11.4557
    13.8413  13.8413

          k =-0.3333 0.3333-0.3333 (  1616 PWs)   bands (ev):

    -5.6641   0.0359   4.1767   4.1767   6.9718   9.6362   9.6362  12.9149
    14.4678  14.4678

          k =-0.4167 0.4167-0.4167 (  1616 PWs)   bands (ev):

    -5.2064  -0.8903   4.0410   4.0410   6.8081   9.6352   9.6352  13.9889
    15.6016  15.6016

          k = 0.5000-0.5000 0.5000 (  1622 PWs)   bands (ev):

    -4.9939  -1.2606   3.9945   3.9945   6.7510   9.6186   9.6186  14.2755
    16.8693  16.8860

          k = 0.0000 0.1667 0.0000 (  1615 PWs)   bands (ev):

    -6.7195   4.0729   4.6825   4.6825   7.6260   8.4608   9.0623   9.0623
    13.6450  14.4066

          k =-0.0833 0.2500-0.0833 (  1599 PWs)   bands (ev):

    -6.5344   2.9840   4.4098   4.5030   7.9304   8.5579   9.5080   9.8051
    13.2073  14.3951

          k =-0.1667 0.3333-0.1667 (  1610 PWs)   bands (ev):

    -6.2036   1.6566   4.1482   4.2410   7.7751   8.9747   9.9072  10.8758
    13.2401  14.4517

          k =-0.2500 0.4167-0.2500 (  1606 PWs)   bands (ev):

    -5.7588   0.4028   3.9439   3.9565   7.5413   9.3244  10.0710  11.8459
    14.0492  14.9776

          k =-0.3333 0.5000-0.3333 (  1616 PWs)   bands (ev):

    -5.2799  -0.6225   3.6901   3.8609   7.3569   9.4677  10.0230  12.9064
    15.1629  16.0185

          k = 0.5833-0.4167 0.5833 (  1615 PWs)   bands (ev):

    -4.9556  -1.1998   3.5199   3.8689   7.2645   9.5395   9.9070  13.9149
    15.5605  16.7893

          k = 0.5000-0.3333 0.5000 (  1616 PWs)   bands (ev):

    -5.0301  -1.0736   3.4539   3.9763   7.2779   9.6415   9.8076  13.9213
    15.2916  15.8266

          k = 0.4167-0.2500 0.4167 (  1611 PWs)   bands (ev):

    -5.4363  -0.3138   3.5029   4.1692   7.3946   9.7105   9.7548  12.8974
    14.0737  15.8458

          k = 0.3333-0.1667 0.3333 (  1605 PWs)   bands (ev):

    -5.9177   0.8034   3.6722   4.4205   7.5912   9.5178   9.7284  11.7000
    13.3492  14.8880

          k = 0.2500-0.0833 0.2500 (  1600 PWs)   bands (ev):

    -6.3297   2.0813   3.9640   4.6798   7.7904   9.1796   9.3551  10.6169
    13.2189  14.2693

          k = 0.1667-0.0000 0.1667 (  1592 PWs)   bands (ev):

    -6.6137   3.3080   4.3943   4.8605   7.7161   8.8633   8.8971   9.6373
    13.5542  14.1679

          k = 0.0000 0.3333 0.0000 (  1607 PWs)   bands (ev):

    -6.4014   2.6779   4.1032   4.1032   7.8769   8.8450  10.0579  10.0579
    12.7309  14.8012

          k =-0.0833 0.4167-0.0833 (  1616 PWs)   bands (ev):

    -6.1192   1.7396   3.7926   3.8225   7.8566   8.9913  10.5890  10.6470
    12.9045  15.0287

          k =-0.1667 0.5000-0.1667 (  1611 PWs)   bands (ev):

    -5.7115   0.6395   3.4030   3.6252   7.9506   9.2618  10.8365  10.8707
    14.0315  15.5106

          k =-0.2500 0.5833-0.2500 (  1610 PWs)   bands (ev):

    -5.2369  -0.3689   3.0181   3.5374   7.9025   9.6513  10.8558  11.2832
    15.4218  16.4753

          k = 0.6667-0.3333 0.6667 (  1607 PWs)   bands (ev):

    -4.8400  -1.0660   2.7198   3.5665   7.8595   9.7887  10.6917  12.3631
    15.4805  16.6973

          k = 0.5833-0.2500 0.5833 (  1602 PWs)   bands (ev):

    -4.7741  -1.1700   2.5506   3.7072   7.8981   9.8770  10.4981  13.4610
    14.6242  15.1242

          k = 0.5000-0.1667 0.5000 (  1610 PWs)   bands (ev):

    -5.0979  -0.6240   2.5403   3.9409   8.0194  10.0077  10.2839  12.6406
    13.8540  15.5506

          k = 0.4167-0.0833 0.4167 (  1613 PWs)   bands (ev):

    -5.5694   0.2883   2.7287   4.2312   8.1755   9.9634  10.0424  11.5334
    13.0866  16.3053

          k = 0.3333 0.0000 0.3333 (  1604 PWs)   bands (ev):

    -6.0057   1.2704   3.1908   4.5119   8.2025   9.5221   9.6421  11.0270
    12.9195  15.0927

          k = 0.0000 0.5000 0.0000 (  1612 PWs)   bands (ev):

    -5.8864   1.2763   3.5195   3.5195   7.4136   8.9667  11.3231  11.3231
    12.9405  15.4568

          k =-0.0833 0.5833-0.0833 (  1617 PWs)   bands (ev):

    -5.5232   0.4862   3.1521   3.3018   7.4584   8.8262  11.5643  11.8386
    13.9929  15.9537

          k =-0.1667 0.6667-0.1667 (  1620 PWs)   bands (ev):

    -5.0740  -0.3484   2.6448   3.1989   7.6514   9.2372  11.4241  11.9653
    15.5163  16.8633

          k = 0.7500-0.2500 0.7500 (  1617 PWs)   bands (ev):

    -4.6489  -1.0201   2.1810   3.2208   7.7267  10.2216  11.3732  11.8169
    15.6643  16.7098

          k = 0.6667-0.1667 0.6667 (  1607 PWs)   bands (ev):

    -4.4736  -1.2659   1.8779   3.3640   7.8436  10.8618  11.5528  12.0758
    14.2370  15.1240

          k = 0.5833-0.0833 0.5833 (  1611 PWs)   bands (ev):

    -4.6956  -0.9477   1.8098   3.6109   8.0435  10.9856  11.1862  12.4175
    13.8764  13.9204

          k = 0.5000 0.0000 0.5000 (  1604 PWs)   bands (ev):

    -5.1299  -0.3248   2.0666   3.9236   8.2460  10.6228  10.8629  11.4196
    13.1964  15.5083

          k = 0.0000 0.6667 0.0000 (  1624 PWs)   bands (ev):

    -5.2079  -0.0472   3.0577   3.0577   7.0786   8.2833  12.7135  12.7135
    14.2639  16.3686

          k =-0.0833 0.7500-0.0833 (  1618 PWs)   bands (ev):

    -4.8029  -0.6888   2.6987   2.9282   7.2125   8.1578  12.9256  13.1622
    15.5145  17.1255

          k = 0.8333-0.1667 0.8333 (  1619 PWs)   bands (ev):

    -4.3996  -1.2301   2.1513   2.9267   7.4024   8.8322  12.7904  13.1263
    15.8570  16.8310

          k = 0.7500-0.0833 0.7500 (  1620 PWs)   bands (ev):

    -4.1886  -1.4690   1.6954   3.0530   7.5476  10.1115  12.6808  12.7861
    14.2743  15.3373

          k = 0.6667 0.0000 0.6667 (  1612 PWs)   bands (ev):

    -4.3292  -1.3000   1.5319   3.2924   7.7824  11.4897  12.1319  12.6242
    12.8552  14.2996

          k = 0.0000 0.8333 0.0000 (  1628 PWs)   bands (ev):

    -4.4630  -1.1837   2.7675   2.7675   6.9673   7.5953  14.1141  14.1141
    15.8621  17.5226

          k = 0.9167-0.0833 0.9167 (  1622 PWs)   bands (ev):

    -4.1518  -1.5730   2.4667   2.7350   7.1623   7.6688  14.3112  14.3777
    16.1931  17.0487

          k = 0.8333 0.0000 0.8333 (  1614 PWs)   bands (ev):

    -4.0380  -1.6620   1.9830   2.8337   7.3122   8.6694  13.8796  14.0076
    14.7638  15.9271

          k = 0.0000-1.0000 0.0000 (  1604 PWs)   bands (ev):

    -4.0364  -1.7416   2.6688   2.6688   7.0700   7.2071  14.9775  14.9775
    16.9742  17.2410

          k =-0.1667 0.3333 0.0000 (  1603 PWs)   bands (ev):

    -6.3010   2.1654   3.8005   4.4125   8.2122   8.6331   9.9168  10.4738
    12.9543  14.6128

          k =-0.2500 0.4167-0.0833 (  1607 PWs)   bands (ev):

    -5.9309   1.0774   3.3316   4.2003   8.2138   9.0203  10.3511  10.9395
    13.2690  15.1779

          k =-0.3333 0.5000-0.1667 (  1604 PWs)   bands (ev):

    -5.4668  -0.0112   3.0467   3.9455   8.0537   9.3909  10.4873  11.5920
    14.0969  16.2293

          k = 0.5833-0.4167 0.7500 (  1612 PWs)   bands (ev):

    -5.0157  -0.8691   2.8965   3.7524   7.9249   9.4808  10.4791  12.6542
    15.0703  15.9261

          k = 0.5000-0.3333 0.6667 (  1602 PWs)   bands (ev):

    -4.8061  -1.2186   2.8504   3.6811   7.8782   9.4792  10.4616  13.5897
    14.6087  16.4791

          k =-0.1667 0.5000 0.0000 (  1617 PWs)   bands (ev):

    -5.7965   0.9804   3.2142   3.7095   7.9113   9.0650  10.7590  11.2380
    13.4636  15.5462

          k =-0.2500 0.5833-0.0833 (  1611 PWs)   bands (ev):

    -5.3650   0.0917   2.7494   3.4911   8.1573   9.3440  10.6271  11.6786
    14.4012  16.5679

          k = 0.6667-0.3333 0.8333 (  1617 PWs)   bands (ev):

    -4.9039  -0.7223   2.4066   3.3292   8.2164   9.8223  10.8649  11.8029
    15.3147  16.2124

          k = 0.5833-0.2500 0.7500 (  1607 PWs)   bands (ev):

    -4.5974  -1.1983   2.1813   3.3133   8.2649   9.8390  11.4477  12.3012
    14.1751  16.6116

          k = 0.5000-0.1667 0.6667 (  1605 PWs)   bands (ev):

    -4.6776  -1.0756   2.1013   3.4473   8.3826   9.7866  11.3791  12.5713
    13.9062  15.3113

          k = 0.4167-0.0833 0.5833 (  1610 PWs)   bands (ev):

    -5.0717  -0.4487   2.2185   3.6942   8.5436   9.6846  11.0107  11.6634
    13.9734  15.6250

          k = 0.3333 0.0000 0.5000 (  1606 PWs)   bands (ev):

    -5.5349   0.3524   2.6117   3.9850   8.6129   9.2581  10.7760  11.0349
    13.3985  16.4528

          k =-0.1667 0.6667-0.0000 (  1626 PWs)   bands (ev):

    -5.1363  -0.1802   2.7672   3.0949   7.5945   8.6448  11.6432  12.6781
    14.7934  16.7834

          k = 0.7500-0.2500 0.9167 (  1621 PWs)   bands (ev):

    -4.6974  -0.8368   2.3036   2.9299   7.9040   9.0755  11.4284  13.0540
    15.5627  16.4870

          k = 0.6667-0.1667 0.8333 (  1616 PWs)   bands (ev):

    -4.3523  -1.2914   1.8801   2.9334   8.0400  10.1921  11.2414  12.9643
    14.3361  16.6458

          k = 0.5833-0.0833 0.7500 (  1614 PWs)   bands (ev):

    -4.3284  -1.3132   1.6519   3.0926   8.2225  10.8549  11.6479  12.5521
    13.2357  15.2816

          k = 0.5000 0.0000 0.6667 (  1621 PWs)   bands (ev):

    -4.6413  -0.9331   1.7356   3.3685   8.4610  10.5318  11.1831  12.4719
    13.6991  14.4437

          k = 0.8333-0.1667 1.0000 (  1617 PWs)   bands (ev):

    -4.4222  -1.2033   2.5124   2.6762   7.4751   8.0354  12.9339  14.0712
    15.9801  16.7987

          k = 0.7500-0.0833 0.9167 (  1620 PWs)   bands (ev):

    -4.1235  -1.5385   2.0561   2.6417   7.7636   8.7578  12.7010  13.8679
    15.0906  16.6293

          k = 0.6667 0.0000 0.8333 (  1620 PWs)   bands (ev):

    -4.0893  -1.5453   1.6734   2.8045   7.9542  10.1193  12.2926  12.7062
    14.3350  15.6458

          k =-0.1667-1.0000 0.0000 (  1622 PWs)   bands (ev):

    -4.0244  -1.7063   2.4593   2.5000   7.5475   7.6962  14.1488  14.2750
    16.0231  16.5514

          k = 0.6667-0.3333 1.0000 (  1610 PWs)   bands (ev):

    -4.9340  -0.5196   2.2051   3.2202   8.7870   9.4131  10.3664  12.5830
    14.6078  15.8901

          k = 0.5833-0.2500 0.9167 (  1611 PWs)   bands (ev):

    -4.5189  -1.0783   1.8990   2.9663   9.0289   9.7475  10.6852  12.9671
    13.9991  15.7503

          k = 0.5000-0.1667 0.8333 (  1610 PWs)   bands (ev):

    -4.3277  -1.3261   1.8053   2.8669   9.0537   9.7275  11.6418  12.4768
    13.3648  16.7641

          k = 0.6667-0.1667 1.0000 (  1618 PWs)   bands (ev):

    -4.3164  -1.2733   2.0347   2.5630   8.7092   9.1611  11.1492  13.6419
    14.6948  16.3060

          k = 0.5833-0.0833 0.9167 (  1615 PWs)   bands (ev):

    -4.0944  -1.5037   1.7964   2.4426   9.0274  10.1985  10.9418  12.2684
    14.7759  16.6475

          k = 0.5000 0.0000 0.8333 (  1612 PWs)   bands (ev):

    -4.1891  -1.3983   1.6974   2.6200   9.2262  10.4680  10.7311  12.1277
    14.3452  15.9401

          k =-0.3333-1.0000 0.0000 (  1618 PWs)   bands (ev):

    -3.9996  -1.6309   2.0930   2.2109   8.7562   8.9053  12.3408  12.5444
    15.8097  16.3184

          k =-0.5000-1.0000 0.0000 (  1628 PWs)   bands (ev):

    -3.9871  -1.5904   1.9272   2.0835  10.1360  10.1419  10.7245  11.1093
    15.7858  16.2808

     the Fermi energy is     5.3478 ev

     Writing output data file Si.save

     init_run     :      0.27s CPU      0.27s WALL (       1 calls)
     electrons    :     34.63s CPU     35.38s WALL (       1 calls)

     Called by init_run:
     wfcinit      :      0.00s CPU      0.00s WALL (       1 calls)
     potinit      :      0.06s CPU      0.06s WALL (       1 calls)

     Called by electrons:
     c_bands      :     34.60s CPU     35.36s WALL (       1 calls)
     v_of_rho     :      0.05s CPU      0.05s WALL (       1 calls)

     Called by c_bands:
     init_us_2    :      0.11s CPU      0.11s WALL (      72 calls)
     cegterg      :     27.19s CPU     27.78s WALL (      87 calls)

     Called by *egterg:
     h_psi        :     29.04s CPU     29.68s WALL (    1444 calls)
     g_psi        :      0.07s CPU      0.08s WALL (    1285 calls)
     cdiaghg      :      0.59s CPU      0.60s WALL (    1357 calls)

     Called by h_psi:
     add_vuspsi   :      0.81s CPU      0.86s WALL (    1444 calls)

     General routines
     calbec       :      0.91s CPU      0.93s WALL (    1444 calls)
     fft          :      0.03s CPU      0.03s WALL (      10 calls)
     fftw         :     25.88s CPU     26.43s WALL (   21782 calls)
     davcio       :      0.01s CPU      0.05s WALL (      72 calls)

     Parallel routines
     fft_scatter  :      0.66s CPU      0.67s WALL (   21792 calls)

     PWSCF        :    36.81s CPU        37.69s WALL


   This run was terminated on:   1:59:23  16Feb2023            

=------------------------------------------------------------------------------=
   JOB DONE.
=------------------------------------------------------------------------------=
