
     Program PWSCF v.5.1 starts on 16Feb2023 at  1:57:49 

     This program is part of the open-source Quantum ESPRESSO suite
     for quantum simulation of materials; please cite
         "P. Giannozzi et al., J. Phys.:Condens. Matter 21 395502 (2009);
          URL http://www.quantum-espresso.org", 
     in publications or presentations arising from this work. More details at
     http://www.quantum-espresso.org/quote

     Parallel version (MPI), running on     1 processors
     Waiting for input...
     Reading input from standard input

     Current dimensions of program PWSCF are:
     Max number of different atomic species (ntypx) = 10
     Max number of k-points (npk) =  40000
     Max angular momentum in pseudopotentials (lmaxx) =  3
               file Si.pbe-mt_fhi.UPF: wavefunction(s)  4f renormalized
               file P.pbe-mt_fhi.UPF: wavefunction(s)  4f renormalized

     Subspace diagonalization in iterative solution of the eigenvalue problem:
     a serial algorithm will be used


     G-vector sticks info
     --------------------
     sticks:   dense  smooth     PW     G-vecs:    dense   smooth      PW
     Sum         733     733    211                12939    12939    2109



     bravais-lattice index     =            2
     lattice parameter (alat)  =      10.2623  a.u.
     unit-cell volume          =     270.1967 (a.u.)^3
     number of atoms/cell      =            2
     number of atomic types    =            2
     number of electrons       =         8.00
     number of Kohn-Sham states=           10
     kinetic-energy cutoff     =      50.0000  Ry
     charge density cutoff     =     200.0000  Ry
     convergence threshold     =      1.6E-09
     mixing beta               =       0.3000
     number of iterations used =            8  plain     mixing
     Exchange-correlation      = PBE ( 1  4  3  4 0)

     celldm(1)=  10.262347  celldm(2)=   0.000000  celldm(3)=   0.000000
     celldm(4)=   0.000000  celldm(5)=   0.000000  celldm(6)=   0.000000

     crystal axes: (cart. coord. in units of alat)
               a(1) = (  -0.500000   0.000000   0.500000 )  
               a(2) = (   0.000000   0.500000   0.500000 )  
               a(3) = (  -0.500000   0.500000   0.000000 )  

     reciprocal axes: (cart. coord. in units 2 pi/alat)
               b(1) = ( -1.000000 -1.000000  1.000000 )  
               b(2) = (  1.000000  1.000000  1.000000 )  
               b(3) = ( -1.000000  1.000000 -1.000000 )  


     PseudoPot. # 1 for Si read from file:
     /home/acedemo/psudo/Si.pbe-mt_fhi.UPF
     MD5 check sum: 259057c2adf9952f9ced37ae3d9e311d
     Pseudo is Norm-conserving, Zval =  4.0
     Generated using FHI98PP, converted with fhi2upf.x v.5.0.2
     Using radial grid of  495 points,  3 beta functions with: 
                l(1) =   0
                l(2) =   1
                l(3) =   3

     PseudoPot. # 2 for  P read from file:
     /home/acedemo/psudo/P.pbe-mt_fhi.UPF
     MD5 check sum: 7191c457fb61afa58d0f00d0e4a443c1
     Pseudo is Norm-conserving, Zval =  5.0
     Generated using FHI98PP, converted with fhi2upf.x v.5.0.2
     Using radial grid of  499 points,  3 beta functions with: 
                l(1) =   0
                l(2) =   1
                l(3) =   3

     atomic species   valence    mass     pseudopotential
        Si             4.00    28.08550     Si( 1.00)
        P              5.00    30.97376      P( 1.00)

     24 Sym. Ops. (no inversion) found



   Cartesian axes

     site n.     atom                  positions (alat units)
         1           Si  tau(   1) = (   0.0000000   0.0000000   0.0000000  )
         2           P   tau(   2) = (   0.2500000   0.2500000   0.2500000  )

     number of k points=    10  Marzari-Vanderbilt smearing, width (Ry)=  0.0500
                       cart. coord. in units 2pi/alat
        k(    1) = (   0.0000000   0.0000000   0.0000000), wk =   0.0160000
        k(    2) = (  -0.2000000   0.2000000  -0.2000000), wk =   0.1280000
        k(    3) = (  -0.4000000   0.4000000  -0.4000000), wk =   0.1280000
        k(    4) = (   0.0000000   0.4000000   0.0000000), wk =   0.0960000
        k(    5) = (  -0.2000000   0.6000000  -0.2000000), wk =   0.3840000
        k(    6) = (   0.6000000  -0.2000000   0.6000000), wk =   0.3840000
        k(    7) = (   0.4000000   0.0000000   0.4000000), wk =   0.1920000
        k(    8) = (   0.0000000   0.8000000   0.0000000), wk =   0.0960000
        k(    9) = (   0.8000000   0.0000000   0.8000000), wk =   0.1920000
        k(   10) = (   0.6000000  -0.2000000   1.0000000), wk =   0.3840000

     Dense  grid:    12939 G-vectors     FFT dimensions: (  36,  36,  36)

     Largest allocated arrays     est. size (Mb)     dimensions
        Kohn-Sham Wavefunctions         0.25 Mb     (    1639,   10)
        NL pseudopotentials             0.55 Mb     (    1639,   22)
        Each V/rho on FFT grid          0.71 Mb     (   46656)
        Each G-vector array             0.10 Mb     (   12939)
        G-vector shells                 0.00 Mb     (     180)
     Largest temporary arrays     est. size (Mb)     dimensions
        Auxiliary wavefunctions         1.00 Mb     (    1639,   40)
        Each subspace H/S matrix        0.02 Mb     (      40,   40)
        Each <psi_i|beta_j> matrix      0.00 Mb     (      22,   10)
        Arrays for rho mixing           5.70 Mb     (   46656,    8)

     Initial potential from superposition of free atoms

     starting charge    8.99918, renormalised to    8.00000
     Starting wfc are   32 randomized atomic wfcs

     total cpu time spent up to now is        1.8 secs

     per-process dynamical memory:    17.0 Mb

     Self-consistent Calculation

     iteration #  1     ecut=    50.00 Ry     beta=0.30
     Davidson diagonalization with overlap
     ethr =  1.00E-02,  avg # of iterations =  2.1

     total cpu time spent up to now is        3.3 secs

     total energy              =     -21.58303969 Ry
     Harris-Foulkes estimate   =     -21.61334239 Ry
     estimated scf accuracy    <       0.12436765 Ry

     iteration #  2     ecut=    50.00 Ry     beta=0.30
     Davidson diagonalization with overlap
     ethr =  1.55E-03,  avg # of iterations =  1.0

     total cpu time spent up to now is        4.4 secs

     total energy              =     -21.57915094 Ry
     Harris-Foulkes estimate   =     -21.58858650 Ry
     estimated scf accuracy    <       0.03711118 Ry

     iteration #  3     ecut=    50.00 Ry     beta=0.30
     Davidson diagonalization with overlap
     ethr =  4.64E-04,  avg # of iterations =  1.0

     total cpu time spent up to now is        5.4 secs

     total energy              =     -21.58145639 Ry
     Harris-Foulkes estimate   =     -21.58207830 Ry
     estimated scf accuracy    <       0.00460346 Ry

     iteration #  4     ecut=    50.00 Ry     beta=0.30
     Davidson diagonalization with overlap
     ethr =  5.75E-05,  avg # of iterations =  1.4

     total cpu time spent up to now is        6.4 secs

     total energy              =     -21.58176518 Ry
     Harris-Foulkes estimate   =     -21.58177591 Ry
     estimated scf accuracy    <       0.00008511 Ry

     iteration #  5     ecut=    50.00 Ry     beta=0.30
     Davidson diagonalization with overlap
     ethr =  1.06E-06,  avg # of iterations =  3.0

     total cpu time spent up to now is        7.8 secs

     total energy              =     -21.58178681 Ry
     Harris-Foulkes estimate   =     -21.58179022 Ry
     estimated scf accuracy    <       0.00002745 Ry

     iteration #  6     ecut=    50.00 Ry     beta=0.30
     Davidson diagonalization with overlap
     ethr =  3.43E-07,  avg # of iterations =  1.0

     total cpu time spent up to now is        9.1 secs

     total energy              =     -21.58179029 Ry
     Harris-Foulkes estimate   =     -21.58178997 Ry
     estimated scf accuracy    <       0.00000035 Ry

     iteration #  7     ecut=    50.00 Ry     beta=0.30
     Davidson diagonalization with overlap
     ethr =  4.34E-09,  avg # of iterations =  2.0

     total cpu time spent up to now is       10.4 secs

     total energy              =     -21.58179050 Ry
     Harris-Foulkes estimate   =     -21.58179040 Ry
     estimated scf accuracy    <       0.00000006 Ry

     iteration #  8     ecut=    50.00 Ry     beta=0.30
     Davidson diagonalization with overlap
     ethr =  7.51E-10,  avg # of iterations =  2.0

     total cpu time spent up to now is       11.5 secs

     total energy              =     -21.58179049 Ry
     Harris-Foulkes estimate   =     -21.58179051 Ry
     estimated scf accuracy    <       0.00000003 Ry

     iteration #  9     ecut=    50.00 Ry     beta=0.30
     Davidson diagonalization with overlap
     ethr =  3.62E-10,  avg # of iterations =  1.8

     total cpu time spent up to now is       12.4 secs

     End of self-consistent calculation

          k = 0.0000 0.0000 0.0000 (  1639 PWs)   bands (ev):

    -6.8270   4.9598   4.9598   4.9598   6.7929   8.6446   8.6446   8.6446
    14.2748  14.2748

          k =-0.2000 0.2000-0.2000 (  1606 PWs)   bands (ev):

    -6.3751   2.0952   4.5373   4.5373   7.3595   9.3157   9.3157  10.5634
    13.7452  13.7452

          k =-0.4000 0.4000-0.4000 (  1616 PWs)   bands (ev):

    -5.2877  -0.7399   4.0612   4.0612   6.8328   9.6398   9.6398  13.8364
    15.3426  15.3426

          k = 0.0000 0.4000 0.0000 (  1607 PWs)   bands (ev):

    -6.2179   2.1119   3.8604   3.8604   7.6877   9.0450  10.5422  10.5422
    12.6268  15.0323

          k =-0.2000 0.6000-0.2000 (  1619 PWs)   bands (ev):

    -5.2809  -0.1397   2.8980   3.4067   7.8587   9.6278  10.9161  11.2919
    15.2075  16.4212

          k = 0.6000-0.2000 0.6000 (  1596 PWs)   bands (ev):

    -4.6861  -1.1552   2.2124   3.6131   7.9702  10.2305  10.8377  13.1258
    14.2190  14.8159

          k = 0.4000 0.0000 0.4000 (  1610 PWs)   bands (ev):

    -5.6750   0.5678   2.7008   4.2973   8.2928   9.9098  10.0752  11.1850
    12.9168  16.1204

          k = 0.0000 0.8000 0.0000 (  1624 PWs)   bands (ev):

    -4.6068  -0.9823   2.8105   2.8105   6.9694   7.7162  13.8437  13.8437
    15.5444  17.2743

          k = 0.8000 0.0000 0.8000 (  1622 PWs)   bands (ev):

    -4.0564  -1.6225   1.8177   2.9043   7.3885   9.2099  13.5316  13.7192
    14.3027  15.5793

          k = 0.6000-0.2000 1.0000 (  1616 PWs)   bands (ev):

    -4.3665  -1.2081   1.8716   2.6922   9.2652   9.7269  10.3882  13.2921
    14.2130  15.8953

     the Fermi energy is     4.9727 ev

!    total energy              =     -21.58179050 Ry
     Harris-Foulkes estimate   =     -21.58179050 Ry
     estimated scf accuracy    <          1.6E-09 Ry

     The total energy is the sum of the following terms:

     one-electron contribution =       3.13522053 Ry
     hartree contribution      =       1.75866935 Ry
     xc contribution           =      -5.03946816 Ry
     ewald contribution        =     -21.44312514 Ry
     smearing contrib. (-TS)   =       0.00691292 Ry

     convergence has been achieved in   9 iterations

     Forces acting on atoms (Ry/au):

     atom    1 type  1   force =    -0.00000000   -0.00000000    0.00000000
     atom    2 type  2   force =     0.00000000    0.00000000   -0.00000000

     Total force =     0.000000     Total SCF correction =     0.000000


     entering subroutine stress ...

          total   stress  (Ry/bohr**3)                   (kbar)     P= -507.01
  -0.00344661   0.00000000  -0.00000000       -507.01      0.00     -0.00
   0.00000000  -0.00344661   0.00000000          0.00   -507.01      0.00
  -0.00000000  -0.00000000  -0.00344661         -0.00     -0.00   -507.01


     Writing output data file Si.save

     init_run     :      1.45s CPU      1.64s WALL (       1 calls)
     electrons    :      9.76s CPU     10.65s WALL (       1 calls)
     forces       :      0.11s CPU      0.12s WALL (       1 calls)
     stress       :      0.67s CPU      0.76s WALL (       1 calls)

     Called by init_run:
     wfcinit      :      1.07s CPU      1.16s WALL (       1 calls)
     potinit      :      0.12s CPU      0.14s WALL (       1 calls)

     Called by electrons:
     c_bands      :      7.57s CPU      8.26s WALL (       9 calls)
     sum_band     :      1.65s CPU      1.78s WALL (       9 calls)
     v_of_rho     :      0.58s CPU      0.63s WALL (      10 calls)
     mix_rho      :      0.03s CPU      0.06s WALL (       9 calls)

     Called by c_bands:
     init_us_2    :      0.39s CPU      0.43s WALL (     210 calls)
     cegterg      :      7.26s CPU      7.94s WALL (      90 calls)

     Called by *egterg:
     h_psi        :      7.53s CPU      8.20s WALL (     253 calls)
     g_psi        :      0.01s CPU      0.01s WALL (     153 calls)
     cdiaghg      :      0.07s CPU      0.09s WALL (     243 calls)

     Called by h_psi:
     add_vuspsi   :      0.21s CPU      0.22s WALL (     253 calls)

     General routines
     calbec       :      0.27s CPU      0.30s WALL (     273 calls)
     fft          :      0.26s CPU      0.30s WALL (     117 calls)
     fftw         :      7.94s CPU      8.64s WALL (    5538 calls)
     davcio       :      0.00s CPU      0.00s WALL (      10 calls)

     Parallel routines
     fft_scatter  :      0.23s CPU      0.25s WALL (    5655 calls)

     PWSCF        :    12.15s CPU        13.39s WALL


   This run was terminated on:   1:58: 2  16Feb2023            

=------------------------------------------------------------------------------=
   JOB DONE.
=------------------------------------------------------------------------------=
