
     Program PWSCF v.5.1 starts on 13Feb2023 at 17: 7:31 

     This program is part of the open-source Quantum ESPRESSO suite
     for quantum simulation of materials; please cite
         "P. Giannozzi et al., J. Phys.:Condens. Matter 21 395502 (2009);
          URL http://www.quantum-espresso.org", 
     in publications or presentations arising from this work. More details at
     http://www.quantum-espresso.org/quote

     Parallel version (MPI), running on     1 processors
     Waiting for input...
     Reading input from standard input

     Current dimensions of program PWSCF are:
     Max number of different atomic species (ntypx) = 10
     Max number of k-points (npk) =  40000
     Max angular momentum in pseudopotentials (lmaxx) =  3
               file Si.pbe-mt_fhi.UPF: wavefunction(s)  4f renormalized

     Subspace diagonalization in iterative solution of the eigenvalue problem:
     a serial algorithm will be used


     G-vector sticks info
     --------------------
     sticks:   dense  smooth     PW     G-vecs:    dense   smooth      PW
     Sum         733     733    211                12939    12939    2109



     bravais-lattice index     =            2
     lattice parameter (alat)  =      10.2623  a.u.
     unit-cell volume          =     270.1967 (a.u.)^3
     number of atoms/cell      =            2
     number of atomic types    =            1
     number of electrons       =         8.30
     number of Kohn-Sham states=           10
     kinetic-energy cutoff     =      50.0000  Ry
     charge density cutoff     =     200.0000  Ry
     convergence threshold     =      1.6E-09
     mixing beta               =       0.3000
     number of iterations used =            8  plain     mixing
     Exchange-correlation      = PBE ( 1  4  3  4 0)

     celldm(1)=  10.262347  celldm(2)=   0.000000  celldm(3)=   0.000000
     celldm(4)=   0.000000  celldm(5)=   0.000000  celldm(6)=   0.000000

     crystal axes: (cart. coord. in units of alat)
               a(1) = (  -0.500000   0.000000   0.500000 )  
               a(2) = (   0.000000   0.500000   0.500000 )  
               a(3) = (  -0.500000   0.500000   0.000000 )  

     reciprocal axes: (cart. coord. in units 2 pi/alat)
               b(1) = ( -1.000000 -1.000000  1.000000 )  
               b(2) = (  1.000000  1.000000  1.000000 )  
               b(3) = ( -1.000000  1.000000 -1.000000 )  


     PseudoPot. # 1 for Si read from file:
     /home/acedemo/psudo/Si.pbe-mt_fhi.UPF
     MD5 check sum: 259057c2adf9952f9ced37ae3d9e311d
     Pseudo is Norm-conserving, Zval =  4.0
     Generated using FHI98PP, converted with fhi2upf.x v.5.0.2
     Using radial grid of  495 points,  3 beta functions with: 
                l(1) =   0
                l(2) =   1
                l(3) =   3

     atomic species   valence    mass     pseudopotential
        Si             4.00    28.08550     Si( 1.00)

     48 Sym. Ops., with inversion, found (24 have fractional translation)



   Cartesian axes

     site n.     atom                  positions (alat units)
         1           Si  tau(   1) = (   0.0000000   0.0000000   0.0000000  )
         2           Si  tau(   2) = (   0.2500000   0.2500000   0.2500000  )

     number of k points=    10  Marzari-Vanderbilt smearing, width (Ry)=  0.0500
                       cart. coord. in units 2pi/alat
        k(    1) = (   0.0000000   0.0000000   0.0000000), wk =   0.0160000
        k(    2) = (  -0.2000000   0.2000000  -0.2000000), wk =   0.1280000
        k(    3) = (  -0.4000000   0.4000000  -0.4000000), wk =   0.1280000
        k(    4) = (   0.0000000   0.4000000   0.0000000), wk =   0.0960000
        k(    5) = (  -0.2000000   0.6000000  -0.2000000), wk =   0.3840000
        k(    6) = (   0.6000000  -0.2000000   0.6000000), wk =   0.3840000
        k(    7) = (   0.4000000   0.0000000   0.4000000), wk =   0.1920000
        k(    8) = (   0.0000000   0.8000000   0.0000000), wk =   0.0960000
        k(    9) = (   0.8000000   0.0000000   0.8000000), wk =   0.1920000
        k(   10) = (   0.6000000  -0.2000000   1.0000000), wk =   0.3840000

     Dense  grid:    12939 G-vectors     FFT dimensions: (  36,  36,  36)

     Largest allocated arrays     est. size (Mb)     dimensions
        Kohn-Sham Wavefunctions         0.25 Mb     (    1639,   10)
        NL pseudopotentials             0.55 Mb     (    1639,   22)
        Each V/rho on FFT grid          0.71 Mb     (   46656)
        Each G-vector array             0.10 Mb     (   12939)
        G-vector shells                 0.00 Mb     (     180)
     Largest temporary arrays     est. size (Mb)     dimensions
        Auxiliary wavefunctions         1.00 Mb     (    1639,   40)
        Each subspace H/S matrix        0.02 Mb     (      40,   40)
        Each <psi_i|beta_j> matrix      0.00 Mb     (      22,   10)
        Arrays for rho mixing           5.70 Mb     (   46656,    8)

     Initial potential from superposition of free atoms

     starting charge    7.99859, renormalised to    8.30000
     Starting wfc are   32 randomized atomic wfcs

     total cpu time spent up to now is        1.3 secs

     per-process dynamical memory:    15.9 Mb

     Self-consistent Calculation

     iteration #  1     ecut=    50.00 Ry     beta=0.30
     Davidson diagonalization with overlap
     ethr =  1.00E-02,  avg # of iterations =  2.3

     Threshold (ethr) on eigenvalues was too large:
     Diagonalizing with lowered threshold

     Davidson diagonalization with overlap
     ethr =  5.06E-04,  avg # of iterations =  1.0

     total cpu time spent up to now is        4.1 secs

     total energy              =     -15.60569249 Ry
     Harris-Foulkes estimate   =     -15.61033980 Ry
     estimated scf accuracy    <       0.04243619 Ry

     iteration #  2     ecut=    50.00 Ry     beta=0.30
     Davidson diagonalization with overlap
     ethr =  5.11E-04,  avg # of iterations =  1.0

     total cpu time spent up to now is        5.1 secs

     total energy              =     -15.60284398 Ry
     Harris-Foulkes estimate   =     -15.60602981 Ry
     estimated scf accuracy    <       0.01837415 Ry

     iteration #  3     ecut=    50.00 Ry     beta=0.30
     Davidson diagonalization with overlap
     ethr =  2.21E-04,  avg # of iterations =  1.0

     total cpu time spent up to now is        6.2 secs

     total energy              =     -15.60374516 Ry
     Harris-Foulkes estimate   =     -15.60380642 Ry
     estimated scf accuracy    <       0.00033987 Ry

     iteration #  4     ecut=    50.00 Ry     beta=0.30
     Davidson diagonalization with overlap
     ethr =  4.09E-06,  avg # of iterations =  3.6

     total cpu time spent up to now is        7.3 secs

     total energy              =     -15.60378593 Ry
     Harris-Foulkes estimate   =     -15.60379989 Ry
     estimated scf accuracy    <       0.00003389 Ry

     iteration #  5     ecut=    50.00 Ry     beta=0.30
     Davidson diagonalization with overlap
     ethr =  4.08E-07,  avg # of iterations =  1.1

     total cpu time spent up to now is        8.1 secs

     total energy              =     -15.60378994 Ry
     Harris-Foulkes estimate   =     -15.60378952 Ry
     estimated scf accuracy    <       0.00000020 Ry

     iteration #  6     ecut=    50.00 Ry     beta=0.30
     Davidson diagonalization with overlap
     ethr =  2.37E-09,  avg # of iterations =  2.5

     total cpu time spent up to now is        9.2 secs

     total energy              =     -15.60379017 Ry
     Harris-Foulkes estimate   =     -15.60379013 Ry
     estimated scf accuracy    <       0.00000002 Ry

     iteration #  7     ecut=    50.00 Ry     beta=0.30
     Davidson diagonalization with overlap
     ethr =  2.06E-10,  avg # of iterations =  2.0

     total cpu time spent up to now is       10.5 secs

     End of self-consistent calculation

          k = 0.0000 0.0000 0.0000 (  1639 PWs)   bands (ev):

    -5.8618   6.1402   6.1402   6.1402   8.6787   8.6787   8.6787   9.3907
    13.8586  13.8586

          k =-0.2000 0.2000-0.2000 (  1606 PWs)   bands (ev):

    -5.3416   3.1104   5.5566   5.5566   8.2921   9.4805   9.4805  12.0806
    13.1592  13.1592

          k =-0.4000 0.4000-0.4000 (  1616 PWs)   bands (ev):

    -3.9684  -0.1697   5.0080   5.0080   7.6828   9.5197   9.5197  13.8067
    15.0977  15.0977

          k = 0.0000 0.4000 0.0000 (  1607 PWs)   bands (ev):

    -5.1627   3.5084   4.6388   4.6388   7.5356   9.9451  11.0158  11.0158
    13.1185  14.6326

          k =-0.2000 0.6000-0.2000 (  1619 PWs)   bands (ev):

    -4.0144   0.8112   3.4878   4.1289   7.8407  10.1532  11.0216  11.5493
    16.2392  16.4702

          k = 0.6000-0.2000 0.6000 (  1596 PWs)   bands (ev):

    -3.1202  -0.5951   2.6715   4.4150   8.1224  10.6771  10.9099  13.6421
    14.4287  14.5455

          k = 0.4000 0.0000 0.4000 (  1610 PWs)   bands (ev):

    -4.5051   1.6486   3.1020   5.2911   8.9772  10.1093  10.3908  11.7867
    12.2120  16.8254

          k = 0.0000 0.8000 0.0000 (  1624 PWs)   bands (ev):

    -3.1353  -0.0505   3.4257   3.4257   6.6314   7.3551  14.6185  14.6185
    16.9427  17.1781

          k = 0.8000 0.0000 0.8000 (  1622 PWs)   bands (ev):

    -1.9191  -1.3178   2.0263   3.5457   7.0782   9.2203  14.2067  14.7392
    14.7873  15.1751

          k = 0.6000-0.2000 1.0000 (  1616 PWs)   bands (ev):

    -2.6904  -0.4345   2.1128   3.1123   9.4727   9.8327  10.5188  13.8660
    14.5601  16.2749

     the Fermi energy is     7.2610 ev

!    total energy              =     -15.60379018 Ry
     Harris-Foulkes estimate   =     -15.60379018 Ry
     estimated scf accuracy    <          3.3E-10 Ry

     The total energy is the sum of the following terms:

     one-electron contribution =       5.12185484 Ry
     hartree contribution      =       1.09347862 Ry
     xc contribution           =      -5.01847474 Ry
     ewald contribution        =     -16.79708774 Ry
     smearing contrib. (-TS)   =      -0.00356115 Ry

     convergence has been achieved in   7 iterations

     Forces acting on atoms (Ry/au):

     atom    1 type  1   force =     0.00000000    0.00000000    0.00000000
     atom    2 type  1   force =    -0.00000000    0.00000000   -0.00000000

     Total force =     0.000000     Total SCF correction =     0.000000


     entering subroutine stress ...

          total   stress  (Ry/bohr**3)                   (kbar)     P=  129.68
   0.00088157  -0.00000000   0.00000000        129.68     -0.00      0.00
  -0.00000000   0.00088157  -0.00000000         -0.00    129.68     -0.00
   0.00000000  -0.00000000   0.00088157          0.00     -0.00    129.68


     Writing output data file Si.save

     init_run     :      1.21s CPU      1.29s WALL (       1 calls)
     electrons    :      8.31s CPU      9.13s WALL (       1 calls)
     forces       :      0.08s CPU      0.09s WALL (       1 calls)
     stress       :      0.66s CPU      0.74s WALL (       1 calls)

     Called by init_run:
     wfcinit      :      1.03s CPU      1.07s WALL (       1 calls)
     potinit      :      0.05s CPU      0.05s WALL (       1 calls)

     Called by electrons:
     c_bands      :      6.59s CPU      7.22s WALL (       8 calls)
     sum_band     :      1.39s CPU      1.56s WALL (       8 calls)
     v_of_rho     :      0.34s CPU      0.36s WALL (       8 calls)
     mix_rho      :      0.02s CPU      0.02s WALL (       8 calls)

     Called by c_bands:
     init_us_2    :      0.33s CPU      0.36s WALL (     190 calls)
     cegterg      :      6.31s CPU      6.92s WALL (      80 calls)

     Called by *egterg:
     h_psi        :      6.61s CPU      7.20s WALL (     235 calls)
     g_psi        :      0.01s CPU      0.01s WALL (     145 calls)
     cdiaghg      :      0.06s CPU      0.06s WALL (     215 calls)

     Called by h_psi:
     add_vuspsi   :      0.18s CPU      0.19s WALL (     235 calls)

     General routines
     calbec       :      0.23s CPU      0.25s WALL (     255 calls)
     fft          :      0.14s CPU      0.15s WALL (      97 calls)
     fftw         :      6.90s CPU      7.58s WALL (    5050 calls)
     davcio       :      0.00s CPU      0.00s WALL (      10 calls)

     Parallel routines
     fft_scatter  :      0.18s CPU      0.19s WALL (    5147 calls)

     PWSCF        :    10.39s CPU        11.40s WALL


   This run was terminated on:  17: 7:43  13Feb2023            

=------------------------------------------------------------------------------=
   JOB DONE.
=------------------------------------------------------------------------------=
