
     Program PWSCF v.5.1 starts on 12Feb2023 at 16:43:32 

     This program is part of the open-source Quantum ESPRESSO suite
     for quantum simulation of materials; please cite
         "P. Giannozzi et al., J. Phys.:Condens. Matter 21 395502 (2009);
          URL http://www.quantum-espresso.org", 
     in publications or presentations arising from this work. More details at
     http://www.quantum-espresso.org/quote

     Parallel version (MPI), running on     1 processors
     Waiting for input...
     Reading input from standard input
Warning: card   SI   0.0000000000D0   0.5000000000D0   0.5000000000D0 ignored
Warning: card   SI   0.2500000000D0   0.7500000000D0   0.7500000000D0 ignored
Warning: card   SI   -0.5000000000D0   0.0000000000D0   0.5000000000D0 ignored
Warning: card   SI   -0.2500000000D0   0.2500000000D0   0.7500000000D0 ignored
Warning: card   SI   -0.5000000000D0   0.5000000000D0   0.10000000000D0 ignored
Warning: card   SI   -0.2500000000D0   0.7500000000D0   1.25000000000D0 ignored

     Current dimensions of program PWSCF are:
     Max number of different atomic species (ntypx) = 10
     Max number of k-points (npk) =  40000
     Max angular momentum in pseudopotentials (lmaxx) =  3

     Atomic positions and unit cell read from directory:
     ./out/Si.save/

               file Si.pbe-mt_fhi.UPF: wavefunction(s)  4f renormalized
               file B.pbe-mt_fhi.UPF: wavefunction(s)  4f renormalized

     Subspace diagonalization in iterative solution of the eigenvalue problem:
     a serial algorithm will be used


     G-vector sticks info
     --------------------
     sticks:   dense  smooth     PW     G-vecs:    dense   smooth      PW
     Sum         733     733    211                12939    12939    2109



     bravais-lattice index     =            2
     lattice parameter (alat)  =      10.2623  a.u.
     unit-cell volume          =     270.1967 (a.u.)^3
     number of atoms/cell      =            2
     number of atomic types    =            2
     number of electrons       =         7.00
     number of Kohn-Sham states=           24
     kinetic-energy cutoff     =      50.0000  Ry
     charge density cutoff     =     200.0000  Ry
     Exchange-correlation      = PBE ( 1  4  3  4 0)

     celldm(1)=  10.262347  celldm(2)=   0.000000  celldm(3)=   0.000000
     celldm(4)=   0.000000  celldm(5)=   0.000000  celldm(6)=   0.000000

     crystal axes: (cart. coord. in units of alat)
               a(1) = (  -0.500000   0.000000   0.500000 )  
               a(2) = (   0.000000   0.500000   0.500000 )  
               a(3) = (  -0.500000   0.500000   0.000000 )  

     reciprocal axes: (cart. coord. in units 2 pi/alat)
               b(1) = ( -1.000000 -1.000000  1.000000 )  
               b(2) = (  1.000000  1.000000  1.000000 )  
               b(3) = ( -1.000000  1.000000 -1.000000 )  


     PseudoPot. # 1 for Si read from file:
     /home/acedemo/psudo/Si.pbe-mt_fhi.UPF
     MD5 check sum: 259057c2adf9952f9ced37ae3d9e311d
     Pseudo is Norm-conserving, Zval =  4.0
     Generated using FHI98PP, converted with fhi2upf.x v.5.0.2
     Using radial grid of  495 points,  3 beta functions with: 
                l(1) =   0
                l(2) =   1
                l(3) =   3

     PseudoPot. # 2 for  B read from file:
     /home/acedemo/psudo/B.pbe-mt_fhi.UPF
     MD5 check sum: 3ba04917d1d3a8de85490f79a9c37fe5
     Pseudo is Norm-conserving + core correction, Zval =  3.0
     Generated using FHI98PP, converted with fhi2upf.x v.5.0.2
     Using radial grid of  453 points,  3 beta functions with: 
                l(1) =   0
                l(2) =   1
                l(3) =   3

     atomic species   valence    mass     pseudopotential
        Si             4.00    28.08550     Si( 1.00)
        B              3.00    10.81100      B( 1.00)

     24 Sym. Ops. (no inversion) found



   Cartesian axes

     site n.     atom                  positions (alat units)
         1           B   tau(   1) = (   0.0000000   0.0000000   0.0000000  )
         2           Si  tau(   2) = (   0.2500000   0.2500000   0.2500000  )

     number of k points=    51  Marzari-Vanderbilt smearing, width (Ry)=  0.0500
                       cart. coord. in units 2pi/alat
        k(    1) = (   0.5000000   0.5000000   0.5000000), wk =   0.0000000
        k(    2) = (   0.4500000   0.4500000   0.4500000), wk =   0.0014779
        k(    3) = (   0.4000000   0.4000000   0.4000000), wk =   0.0029558
        k(    4) = (   0.3500000   0.3500000   0.3500000), wk =   0.0044337
        k(    5) = (   0.3000000   0.3000000   0.3000000), wk =   0.0059116
        k(    6) = (   0.2500000   0.2500000   0.2500000), wk =   0.0073895
        k(    7) = (   0.2000000   0.2000000   0.2000000), wk =   0.0088674
        k(    8) = (   0.1500000   0.1500000   0.1500000), wk =   0.0103453
        k(    9) = (   0.1000000   0.1000000   0.1000000), wk =   0.0118232
        k(   10) = (   0.0500000   0.0500000   0.0500000), wk =   0.0133011
        k(   11) = (   0.0000000   0.0000000   0.0000000), wk =   0.0147790
        k(   12) = (   0.0000000   0.1000000   0.0000000), wk =   0.0168691
        k(   13) = (   0.0000000   0.2000000   0.0000000), wk =   0.0189591
        k(   14) = (   0.0000000   0.3000000   0.0000000), wk =   0.0210492
        k(   15) = (   0.0000000   0.4000000   0.0000000), wk =   0.0231392
        k(   16) = (   0.0000000   0.5000000   0.0000000), wk =   0.0252293
        k(   17) = (   0.0000000   0.6000000   0.0000000), wk =   0.0273194
        k(   18) = (   0.0000000   0.7000000   0.0000000), wk =   0.0294094
        k(   19) = (   0.0000000   0.8000000   0.0000000), wk =   0.0314995
        k(   20) = (   0.0000000   0.9000000   0.0000000), wk =   0.0335896
        k(   21) = (   0.0000000   1.0000000   0.0000000), wk =   0.0356796
        k(   22) = (   0.0000000   0.9750000   0.0750000), wk =   0.0370621
        k(   23) = (   0.0000000   0.9500000   0.1500000), wk =   0.0384445
        k(   24) = (  -0.0000000   0.9250000   0.2250000), wk =   0.0398270
        k(   25) = (  -0.0000000   0.9000000   0.3000000), wk =   0.0412094
        k(   26) = (   0.0000000   0.8750000   0.3750000), wk =   0.0425919
        k(   27) = (   0.0000000   0.8500000   0.4500000), wk =   0.0439743
        k(   28) = (   0.0000000   0.8250000   0.5250000), wk =   0.0453568
        k(   29) = (  -0.0000000   0.8000000   0.6000000), wk =   0.0467392
        k(   30) = (  -0.0000000   0.7750000   0.6750000), wk =   0.0481217
        k(   31) = (   0.0000000   0.7500000   0.7500000), wk =   0.0495041
        k(   32) = (   0.0000000   0.7250000   0.7750000), wk =   0.0500266
        k(   33) = (   0.0000000   0.7000000   0.8000000), wk =   0.0505491
        k(   34) = (   0.0000000   0.6750000   0.8250000), wk =   0.0510717
        k(   35) = (   0.0000000   0.6500000   0.8500000), wk =   0.0515942
        k(   36) = (   0.0000000   0.6250000   0.8750000), wk =   0.0521167
        k(   37) = (   0.0000000   0.6000000   0.9000000), wk =   0.0526392
        k(   38) = (   0.0000000   0.5750000   0.9250000), wk =   0.0531617
        k(   39) = (   0.0000000   0.5500000   0.9500000), wk =   0.0536842
        k(   40) = (   0.0000000   0.5250000   0.9750000), wk =   0.0542067
        k(   41) = (   0.0000000   0.5000000   1.0000000), wk =   0.0547293
        k(   42) = (   0.0000000   0.4500000   0.9000000), wk =   0.0574942
        k(   43) = (  -0.0000000   0.4000000   0.8000000), wk =   0.0602591
        k(   44) = (  -0.0000000   0.3500000   0.7000000), wk =   0.0630239
        k(   45) = (  -0.0000000   0.3000000   0.6000000), wk =   0.0657888
        k(   46) = (   0.0000000   0.2500000   0.5000000), wk =   0.0685537
        k(   47) = (   0.0000000   0.2000000   0.4000000), wk =   0.0713186
        k(   48) = (   0.0000000   0.1500000   0.3000000), wk =   0.0740835
        k(   49) = (  -0.0000000   0.1000000   0.2000000), wk =   0.0768484
        k(   50) = (  -0.0000000   0.0500000   0.1000000), wk =   0.0796133
        k(   51) = (   0.0000000   0.0000000   0.0000000), wk =   0.0823782

     Dense  grid:    12939 G-vectors     FFT dimensions: (  36,  36,  36)

     Largest allocated arrays     est. size (Mb)     dimensions
        Kohn-Sham Wavefunctions         0.60 Mb     (    1639,   24)
        NL pseudopotentials             0.55 Mb     (    1639,   22)
        Each V/rho on FFT grid          0.71 Mb     (   46656)
        Each G-vector array             0.10 Mb     (   12939)
        G-vector shells                 0.00 Mb     (     180)
     Largest temporary arrays     est. size (Mb)     dimensions
        Auxiliary wavefunctions         2.40 Mb     (    1639,   96)
        Each subspace H/S matrix        0.14 Mb     (      96,   96)
        Each <psi_i|beta_j> matrix      0.01 Mb     (      22,   24)

     Check: negative/imaginary core charge=   -0.000048    0.000000

     The potential is recalculated from file :
     ./out/Si.save/charge-density.dat

     Starting wfc are   32 randomized atomic wfcs

     Band Structure Calculation
     Davidson diagonalization with overlap

     ethr =  2.29E-11,  avg # of iterations = 15.7

     total cpu time spent up to now is       69.6 secs

     End of band structure calculation

          k = 0.5000 0.5000 0.5000 (  1622 PWs)   bands (ev):

    -4.6842  -2.1128   3.1235   3.1235   5.7005   8.1865   8.1865  11.3540
    14.4299  15.2739  15.2739  15.9890  17.3779  17.3779  23.6704  25.0845
    25.9645  25.9645  28.0072  28.0072  30.8623  30.8623  32.0424  33.0411

          k = 0.4500 0.4500 0.4500 (  1610 PWs)   bands (ev):

    -4.8067  -1.9340   3.1412   3.1412   5.7181   8.1906   8.1906  11.3017
    14.2539  14.9706  14.9706  16.1885  17.7381  17.7381  23.0124  25.5806
    25.5806  25.7759  28.0436  28.0436  30.9608  31.1985  31.1985  33.4810

          k = 0.4000 0.4000 0.4000 (  1616 PWs)   bands (ev):

    -5.0990  -1.4735   3.1938   3.1938   5.7705   8.1970   8.1970  11.1240
    13.9526  14.3910  14.3910  16.5313  18.4706  18.4706  22.1195  24.7497
    24.7497  26.6470  28.0901  28.0901  29.8412  31.8145  31.8145  33.8595

          k = 0.3500 0.3500 0.3500 (  1610 PWs)   bands (ev):

    -5.4494  -0.8455   3.2803   3.2803   5.8562   8.1882   8.1882  10.7863
    13.7568  13.8338  13.8338  16.6767  19.1979  19.1979  21.5479  23.9055
    23.9055  26.6013  28.1315  28.1315  29.7342  32.1080  32.1080  34.8370

          k = 0.3000 0.3000 0.3000 (  1615 PWs)   bands (ev):

    -5.7952  -0.1168   3.3983   3.3983   5.9724   8.1386   8.1386  10.2943
    13.4098  13.4098  13.7090  16.4505  19.5944  19.5944  21.4670  23.4157
    23.4157  25.6753  28.2041  28.2041  30.5123  32.1026  32.1026  36.2188

          k = 0.2500 0.2500 0.2500 (  1618 PWs)   bands (ev):

    -6.1076   0.6768   3.5434   3.5434   6.1135   8.0252   8.0252   9.6948
    13.1725  13.1725  13.7253  15.9834  19.3753  19.3753  21.7343  23.5550
    23.5550  24.6652  28.3583  28.3583  31.2863  31.9956  31.9956  36.1943

          k = 0.2000 0.2000 0.2000 (  1606 PWs)   bands (ev):

    -6.3729   1.5105   3.7080   3.7080   6.2686   7.8435   7.8435   9.0354
    13.1402  13.1402  13.6260  15.6174  18.7060  18.7060  21.8910  24.0497
    24.1062  24.1062  28.6605  28.6605  31.6652  31.8722  31.8722  35.9409

          k = 0.1500 0.1500 0.1500 (  1600 PWs)   bands (ev):

    -6.5839   2.3582   3.8795   3.8795   6.4162   7.6179   7.6179   8.3553
    13.2792  13.2955  13.2955  15.6002  17.8957  17.8957  21.4676  24.2076
    24.6905  24.6905  29.1746  29.1746  31.6010  31.7745  31.7745  35.7348

          k = 0.1000 0.1000 0.1000 (  1606 PWs)   bands (ev):

    -6.7368   3.1786   4.0373   4.0373   6.5074   7.3947   7.3947   7.7162
    12.8355  13.5872  13.5872  15.8325  17.1133  17.1133  20.7909  24.7442
    25.1162  25.1162  29.8788  29.8788  31.2772  31.7453  31.7453  35.5834

          k = 0.0500 0.0500 0.0500 (  1630 PWs)   bands (ev):

    -6.8293   3.8769   4.1528   4.1528   6.4344   7.2286   7.2286   7.2803
    12.4970  13.9171  13.9171  16.1008  16.4864  16.4864  20.2418  25.2283
    25.3504  25.3504  30.5369  30.5369  30.9317  31.8621  31.8621  35.4911

          k = 0.0000 0.0000 0.0000 (  1639 PWs)   bands (ev):

    -6.8602   4.1959   4.1959   4.1959   6.2973   7.1667   7.1667   7.1667
    12.3729  14.0839  14.0839  16.2206  16.2206  16.2206  20.0278  25.4228
    25.4228  25.4228  30.7824  30.7824  30.7824  32.0225  32.0225  35.4601

          k = 0.0000 0.1000 0.0000 (  1627 PWs)   bands (ev):

    -6.8190   3.9134   4.0638   4.0638   6.5138   7.1110   7.3395   7.3395
    12.5381  13.6273  14.1301  16.3031  16.3031  16.5631  20.3190  25.2247
    25.2247  25.3683  30.6444  30.6743  30.6743  31.2915  32.2483  35.7948

          k = 0.0000 0.2000 0.0000 (  1599 PWs)   bands (ev):

    -6.6954   3.2899   3.7412   3.7412   6.6781   7.2174   7.7833   7.7833
    12.7667  13.0106  14.2682  16.5490  16.5490  17.1442  21.0926  24.6679
    24.6679  25.2620  29.8960  30.4326  30.4652  30.4652  32.6891  36.5702

          k = 0.0000 0.3000 0.0000 (  1607 PWs)   bands (ev):

    -6.4905   2.5470   3.3441   3.3441   6.4381   7.6088   8.3786   8.3786
    12.0202  13.6682  14.4971  16.9529  16.9529  17.7168  22.0035  23.8539
    23.8539  25.3298  28.3968  30.2910  30.2910  30.3147  33.0682  37.1724

          k = 0.0000 0.4000 0.0000 (  1607 PWs)   bands (ev):

    -6.2057   1.7598   2.9442   2.9442   6.1363   7.7872   9.0484   9.0484
    11.6191  14.4498  14.8142  17.5000  17.5000  18.3182  22.5229  22.9107
    22.9107  25.9876  26.9253  30.1610  30.1610  30.3148  33.1648  36.4513

          k = 0.0000 0.5000 0.0000 (  1612 PWs)   bands (ev):

    -5.8431   0.9545   2.5773   2.5773   5.8579   7.6041   9.7493   9.7493
    11.6896  15.2150  15.2484  18.1483  18.1483  19.0013  21.9702  21.9702
    22.5728  25.5248  27.2235  30.0014  30.0014  30.4030  32.7845  34.9751

          k = 0.0000 0.6000 0.0000 (  1620 PWs)   bands (ev):

    -5.4061   0.1442   2.2623   2.2623   5.6343   7.1860  10.4501  10.4501
    12.0972  15.6909  15.9407  18.7529  18.7529  19.8003  21.2354  21.2354
    22.5577  24.2201  28.3893  29.6821  29.6821  30.4052  32.2061  33.5959

          k = 0.0000 0.7000 0.0000 (  1632 PWs)   bands (ev):

    -4.8990  -0.6608   2.0098   2.0098   5.4822   6.7171  11.1183  11.1183
    12.6399  16.2245  16.3907  18.8780  18.8780  20.7399  21.1762  21.1762
    22.7744  23.0366  28.6269  29.0581  29.0581  29.6094  32.4642  32.8875

          k = 0.0000 0.8000 0.0000 (  1624 PWs)   bands (ev):

    -4.3287  -1.4484   1.8258   1.8258   5.4090   6.3021  11.7047  11.7047
    13.1782  16.5415  16.7764  18.4506  18.4506  21.8267  21.8776  21.8776
    22.0180  23.3338  27.8003  28.1280  28.1280  28.3182  32.2323  33.4827

          k = 0.0000 0.9000 0.0000 (  1608 PWs)   bands (ev):

    -3.7114  -2.1981   1.7141   1.7141   5.4074   5.9975  12.1293  12.1293
    13.5950  16.4963  17.2522  18.0077  18.0077  21.2613  22.7509  22.7509
    22.9919  24.1503  26.5492  27.0615  27.1458  27.1458  32.2122  33.3157

          k = 0.0000 1.0000 0.0000 (  1604 PWs)   bands (ev):

    -3.2284  -2.7257   1.6767   1.6767   5.4280   5.8730  12.2890  12.2890
    13.7588  16.4464  17.4588  17.8310  17.8310  20.9610  23.2012  23.2012
    23.7394  24.7144  25.8026  26.2964  26.6552  26.6552  32.2337  33.2774

          k = 0.0000 0.9750 0.0750 (  1618 PWs)   bands (ev):

    -3.2764  -2.6607   1.6214   1.6281   5.5362   5.9896  12.1610  12.2424
    13.6766  16.3377  17.0408  17.9721  18.3343  21.0969  22.8319  23.1150
    23.8979  24.7234  25.8077  25.9265  26.8800  27.3761  31.7270  32.9838

          k = 0.0000 0.9500 0.1500 (  1622 PWs)   bands (ev):

    -3.3727  -2.5173   1.4690   1.5127   5.8417   6.3151  11.7640  12.1042
    13.4843  16.0993  16.6475  18.2622  18.9708  21.5018  22.2387  22.8625
    23.9431  24.7421  25.5346  26.2744  27.4259  28.3809  30.8421  32.4628

          k =-0.0000 0.9250 0.2250 (  1622 PWs)   bands (ev):

    -3.4673  -2.3580   1.2582   1.3893   6.3013   6.7975  11.1214  11.8782
    13.2615  15.8072  16.4568  18.5484  19.5111  21.6900  22.1225  22.5144
    23.9182  24.6665  25.5673  26.8634  28.0848  29.1905  30.1156  32.0935

          k =-0.0000 0.9000 0.3000 (  1623 PWs)   bands (ev):

    -3.5418  -2.2199   1.0303   1.3130   6.8685   7.3816  10.3286  11.5719
    13.0319  15.5236  16.4055  18.7726  19.8675  21.3627  22.0944  22.8732
    23.9024  24.6560  25.7214  27.4959  28.4950  28.9949  30.4073  32.3071

          k = 0.0000 0.8750 0.3750 (  1614 PWs)   bands (ev):

    -3.5901  -2.1287   0.8162   1.3226   7.4929   8.0034   9.5099  11.2074
    12.7974  15.2680  16.4214  18.9121  19.9993  21.3733  21.7467  23.4523
    23.8780  24.8625  25.9518  27.2484  28.7375  29.3411  30.6905  33.0345

          k = 0.0000 0.8500 0.4500 (  1612 PWs)   bands (ev):

    -3.6107  -2.0968   0.6364   1.4327   7.9528   8.4951   9.0295  10.8377
    12.5626  15.0222  16.4664  18.9765  20.0769  21.3653  21.6586  23.7230
    23.8864  25.2228  26.1887  26.5630  29.1427  29.7585  31.1109  32.4696

          k = 0.0000 0.8250 0.5250 (  1611 PWs)   bands (ev):

    -3.6039  -2.1203   0.5042   1.6267   7.4889   9.0406   9.3302  10.6098
    12.3374  14.7777  16.5183  19.0451  20.2199  21.0830  21.8674  23.6329
    24.0991  25.3719  25.6782  26.9926  29.1211  29.9946  31.8467  32.0227

          k =-0.0000 0.8000 0.6000 (  1614 PWs)   bands (ev):

    -3.5708  -2.1836   0.4277   1.8556   6.8164   9.2303   9.8401  10.7726
    12.1487  14.5661  16.5612  19.2024  20.3564  20.8174  22.0041  23.3918
    24.3376  25.0111  25.6814  27.5776  28.8432  29.6853  31.8690  32.2383

          k =-0.0000 0.7750 0.6750 (  1621 PWs)   bands (ev):

    -3.5132  -2.2692   0.4120   2.0367   6.2907   8.9234  10.5137  11.0664
    12.0743  14.4734  16.5763  19.4793  20.2189  20.7403  22.0990  22.9926
    24.5814  24.9443  25.6043  27.9684  28.5118  29.0860  31.6992  31.9953

          k = 0.0000 0.7500 0.7500 (  1624 PWs)   bands (ev):

    -3.4330  -2.3639   0.4591   2.0659   6.0419   8.5337  11.0256  11.1550
    12.2018  14.6138  16.5398  19.7783  19.9228  20.7278  22.2611  22.6505
    24.7284  25.1083  25.2759  27.8636  28.3607  28.7958  31.3189  31.8845

          k = 0.0000 0.7250 0.7750 (  1616 PWs)   bands (ev):

    -3.4281  -2.3657   0.4634   2.0379   6.0848   8.5363  10.9158  11.2028
    12.2199  14.6447  16.5315  19.6424  20.0765  20.7104  22.2662  22.6840
    24.6761  25.0834  25.3002  27.8613  28.3553  28.8428  31.3334  31.8757

          k = 0.0000 0.7000 0.8000 (  1621 PWs)   bands (ev):

    -3.4136  -2.3715   0.4762   1.9583   6.2092   8.5439  10.7258  11.2065
    12.2795  14.7312  16.5070  19.4727  20.3003  20.6641  22.2826  22.7755
    24.5327  25.0293  25.3483  27.8398  28.3754  28.9464  31.3792  31.8527

          k = 0.0000 0.6750 0.8250 (  1620 PWs)   bands (ev):

    -3.3896  -2.3817   0.4975   1.8381   6.4043   8.5562  10.5102  11.1255
    12.3801  14.8583  16.4672  19.3207  20.5407  20.6048  22.3115  22.9038
    24.3279  24.9529  25.4078  27.7823  28.4490  29.0527  31.4635  31.8294

          k = 0.0000 0.6500 0.8500 (  1616 PWs)   bands (ev):

    -3.3564  -2.3971   0.5271   1.6911   6.6561   8.5721  10.2822  10.9787
    12.5055  15.0078  16.4136  19.1910  20.5412  20.8007  22.3519  23.0425
    24.0878  24.8576  25.4845  27.6913  28.5423  29.1396  31.5965  31.8328

          k = 0.0000 0.6250 0.8750 (  1616 PWs)   bands (ev):

    -3.3149  -2.4187   0.5650   1.5309   6.9506   8.5904  10.0491  10.7921
    12.6364  15.1634  16.3486  19.0852  20.4942  21.0701  22.4014  23.1602
    23.8309  24.7627  25.5819  27.5686  28.5953  29.2263  31.7757  31.8997

          k = 0.0000 0.6000 0.9000 (  1613 PWs)   bands (ev):

    -3.2661  -2.4471   0.6108   1.3693   7.2744   8.6086   9.8167  10.5878
    12.7582  15.3127  16.2750  19.0035  20.4683  21.3513  22.4566  23.2205
    23.5726  24.6989  25.6986  27.4099  28.5768  29.3394  31.9448  32.0941

          k = 0.0000 0.5750 0.9250 (  1615 PWs)   bands (ev):

    -3.2124  -2.4822   0.6643   1.2159   7.6129   8.6228   9.5916  10.3837
    12.8610  15.4468  16.1963  18.9452  20.4659  21.6427  22.5131  23.1856
    23.3356  24.6895  25.8274  27.2178  28.5150  29.4646  32.1196  32.3798

          k = 0.0000 0.5500 0.9500 (  1615 PWs)   bands (ev):

    -3.1582  -2.5215   0.7252   1.0782   7.9453   8.6277   9.3843  10.1987
    12.9379  15.5601  16.1178  18.9080  20.4826  21.9418  22.5622  23.0275
    23.1644  24.7281  25.9531  27.0173  28.4497  29.5716  32.3349  32.6796

          k = 0.0000 0.5250 0.9750 (  1615 PWs)   bands (ev):

    -3.1127  -2.5574   0.7924   0.9626   8.2255   8.6218   9.2182  10.0579
    12.9847  15.6445  16.0506  18.8886  20.5066  22.2413  22.5765  22.8418
    23.0267  24.7796  26.0460  26.8613  28.4022  29.6404  32.5778  32.9372

          k = 0.0000 0.5000 1.0000 (  1628 PWs)   bands (ev):

    -3.0928  -2.5741   0.8514   0.8870   8.3419   8.6234   9.1476  10.0000
    13.0001  15.6791  16.0205  18.8831  20.5193  22.4609  22.5255  22.7302
    22.9615  24.8034  26.0760  26.8062  28.3839  29.6633  32.7483  33.0212

          k = 0.0000 0.4500 0.9000 (  1616 PWs)   bands (ev):

    -3.3872  -2.3031   0.6854   1.2206   8.0470   8.4881   9.1343  10.5481
    12.7862  15.3207  16.2998  18.9550  20.2505  21.7704  21.9279  23.4124
    23.6213  24.9298  26.0701  26.7213  28.7744  29.6663  31.5412  32.6736

          k =-0.0000 0.4000 0.8000 (  1616 PWs)   bands (ev):

    -3.9313  -1.7934   0.7438   1.6339   7.6795   8.2500   8.9983  11.2934
    12.5306  14.7987  16.6001  18.8369  19.8756  20.9342  21.2513  23.7596
    24.0701  25.5129  26.4814  26.8374  29.0279  29.7606  30.6788  32.7621

          k =-0.0000 0.3500 0.7000 (  1618 PWs)   bands (ev):

    -4.5235  -1.1823   0.9941   2.0840   7.3508   8.0570   8.9448  11.0071
    12.8437  14.5466  16.5159  18.3748  19.7446  20.1859  20.8952  22.9447
    24.5838  26.0971  26.9321  27.5415  28.6214  30.5024  31.1282  32.7635

          k =-0.0000 0.3000 0.6000 (  1609 PWs)   bands (ev):

    -5.0956  -0.4881   1.3878   2.5401   7.0888   7.9010   9.0012  10.3116
    12.7127  14.7605  15.9605  17.9450  19.4514  19.8300  20.8364  22.2425
    24.7816  25.9718  26.9130  28.5303  29.4647  30.6967  31.3282  32.5449

          k = 0.0000 0.2500 0.5000 (  1610 PWs)   bands (ev):

    -5.6114   0.2821   1.8863   2.9729   6.9081   7.7419   9.1276   9.5823
    12.3046  14.6497  15.3061  17.4559  18.9189  19.9901  20.7118  22.2738
    24.2955  26.3862  27.1135  28.1514  29.8297  30.9879  32.0652  33.8759

          k = 0.0000 0.2000 0.4000 (  1613 PWs)   bands (ev):

    -6.0504   1.1205   2.4532   3.3607   6.8111   7.5500   8.8839   9.1535
    12.0312  14.2393  14.6417  16.9727  17.9860  19.8300  21.2091  22.8366
    23.9551  26.1210  27.2401  28.2427  30.2586  31.3658  32.6964  35.4567

          k = 0.0000 0.1500 0.3000 (  1607 PWs)   bands (ev):

    -6.4005   2.0131   3.0456   3.6912   6.7799   7.3351   8.2545   8.7897
    12.2002  13.8349  14.0390  16.5929  17.1968  18.8166  21.9122  23.4423
    24.0154  25.3561  28.2839  28.8879  30.6027  31.3391  32.7432  36.7754

          k =-0.0000 0.1000 0.2000 (  1600 PWs)   bands (ev):

    -6.6547   2.9282   3.6023   3.9545   6.7353   7.1711   7.7166   8.0838
    12.8148  13.1311  13.9764  16.3492  16.6437  17.7258  21.2461  24.3614
    24.6323  25.2679  29.4757  29.6682  30.8787  31.1561  32.4244  36.5428

          k =-0.0000 0.0500 0.1000 (  1623 PWs)   bands (ev):

    -6.8087   3.7707   4.0286   4.1318   6.5238   7.1482   7.3224   7.4093
    12.5776  13.6188  14.0422  16.2413  16.3245  16.7342  20.3823  25.1484
    25.1926  25.3690  30.3972  30.5481  30.8555  31.4290  32.1341  35.7973

          k = 0.0000 0.0000 0.0000 (  1639 PWs)   bands (ev):

    -6.8602   4.1959   4.1959   4.1959   6.2973   7.1667   7.1667   7.1667
    12.3729  14.0839  14.0839  16.2206  16.2206  16.2206  20.0278  25.4228
    25.4228  25.4228  30.7824  30.7824  30.7824  32.0225  32.0225  35.4601

     Writing output data file Si.save

     init_run     :      0.33s CPU      0.35s WALL (       1 calls)
     electrons    :     63.42s CPU     67.11s WALL (       1 calls)

     Called by init_run:
     wfcinit      :      0.00s CPU      0.00s WALL (       1 calls)
     potinit      :      0.06s CPU      0.06s WALL (       1 calls)

     Called by electrons:
     c_bands      :     63.42s CPU     67.11s WALL (       1 calls)
     v_of_rho     :      0.05s CPU      0.05s WALL (       1 calls)

     Called by c_bands:
     init_us_2    :      0.09s CPU      0.10s WALL (      51 calls)
     cegterg      :     56.84s CPU     60.10s WALL (      51 calls)

     Called by *egterg:
     h_psi        :     43.20s CPU     45.79s WALL (     902 calls)
     g_psi        :      0.11s CPU      0.12s WALL (     800 calls)
     cdiaghg      :      3.73s CPU      4.00s WALL (     851 calls)

     Called by h_psi:
     add_vuspsi   :      1.26s CPU      1.34s WALL (     902 calls)

     General routines
     calbec       :      1.42s CPU      1.53s WALL (     902 calls)
     fft          :      0.03s CPU      0.03s WALL (      11 calls)
     fftw         :     38.03s CPU     40.27s WALL (   27026 calls)
     davcio       :      0.00s CPU      0.01s WALL (      51 calls)

     Parallel routines
     fft_scatter  :      1.02s CPU      1.05s WALL (   27037 calls)

     PWSCF        :  1m 5.50s CPU     1m 9.73s WALL


   This run was terminated on:  16:44:41  12Feb2023            

=------------------------------------------------------------------------------=
   JOB DONE.
=------------------------------------------------------------------------------=
