
     Program PWSCF v.5.1 starts on 12Feb2023 at 16:40: 7 

     This program is part of the open-source Quantum ESPRESSO suite
     for quantum simulation of materials; please cite
         "P. Giannozzi et al., J. Phys.:Condens. Matter 21 395502 (2009);
          URL http://www.quantum-espresso.org", 
     in publications or presentations arising from this work. More details at
     http://www.quantum-espresso.org/quote

     Parallel version (MPI), running on     1 processors
     Waiting for input...
     Reading input from standard input
Warning: card   SI   0.0000000000D0   0.5000000000D0   0.5000000000D0 ignored
Warning: card   SI   0.2500000000D0   0.7500000000D0   0.7500000000D0 ignored
Warning: card   SI   -0.5000000000D0   0.0000000000D0   0.5000000000D0 ignored
Warning: card   SI   -0.2500000000D0   0.2500000000D0   0.7500000000D0 ignored
Warning: card   SI   -0.5000000000D0   0.5000000000D0   0.10000000000D0 ignored
Warning: card   SI   -0.2500000000D0   0.7500000000D0   1.25000000000D0 ignored

     Current dimensions of program PWSCF are:
     Max number of different atomic species (ntypx) = 10
     Max number of k-points (npk) =  40000
     Max angular momentum in pseudopotentials (lmaxx) =  3

     Atomic positions and unit cell read from directory:
     ./out/Si.save/

               file Si.pbe-mt_fhi.UPF: wavefunction(s)  4f renormalized
               file B.pbe-mt_fhi.UPF: wavefunction(s)  4f renormalized

     Subspace diagonalization in iterative solution of the eigenvalue problem:
     a serial algorithm will be used


     G-vector sticks info
     --------------------
     sticks:   dense  smooth     PW     G-vecs:    dense   smooth      PW
     Sum         733     733    223                12939    12939    2229



     bravais-lattice index     =            2
     lattice parameter (alat)  =      10.2623  a.u.
     unit-cell volume          =     270.1967 (a.u.)^3
     number of atoms/cell      =            2
     number of atomic types    =            2
     number of electrons       =         7.00
     number of Kohn-Sham states=           24
     kinetic-energy cutoff     =      50.0000  Ry
     charge density cutoff     =     200.0000  Ry
     Exchange-correlation      = PBE ( 1  4  3  4 0)

     celldm(1)=  10.262347  celldm(2)=   0.000000  celldm(3)=   0.000000
     celldm(4)=   0.000000  celldm(5)=   0.000000  celldm(6)=   0.000000

     crystal axes: (cart. coord. in units of alat)
               a(1) = (  -0.500000   0.000000   0.500000 )  
               a(2) = (   0.000000   0.500000   0.500000 )  
               a(3) = (  -0.500000   0.500000   0.000000 )  

     reciprocal axes: (cart. coord. in units 2 pi/alat)
               b(1) = ( -1.000000 -1.000000  1.000000 )  
               b(2) = (  1.000000  1.000000  1.000000 )  
               b(3) = ( -1.000000  1.000000 -1.000000 )  


     PseudoPot. # 1 for Si read from file:
     /home/acedemo/psudo/Si.pbe-mt_fhi.UPF
     MD5 check sum: 259057c2adf9952f9ced37ae3d9e311d
     Pseudo is Norm-conserving, Zval =  4.0
     Generated using FHI98PP, converted with fhi2upf.x v.5.0.2
     Using radial grid of  495 points,  3 beta functions with: 
                l(1) =   0
                l(2) =   1
                l(3) =   3

     PseudoPot. # 2 for  B read from file:
     /home/acedemo/psudo/B.pbe-mt_fhi.UPF
     MD5 check sum: 3ba04917d1d3a8de85490f79a9c37fe5
     Pseudo is Norm-conserving + core correction, Zval =  3.0
     Generated using FHI98PP, converted with fhi2upf.x v.5.0.2
     Using radial grid of  453 points,  3 beta functions with: 
                l(1) =   0
                l(2) =   1
                l(3) =   3

     atomic species   valence    mass     pseudopotential
        Si             4.00    28.08550     Si( 1.00)
        B              3.00    10.81100      B( 1.00)

     24 Sym. Ops. (no inversion) found



   Cartesian axes

     site n.     atom                  positions (alat units)
         1           B   tau(   1) = (   0.0000000   0.0000000   0.0000000  )
         2           Si  tau(   2) = (   0.2500000   0.2500000   0.2500000  )

     number of k points=    72 (tetrahedron method)
                       cart. coord. in units 2pi/alat
        k(    1) = (   0.0000000   0.0000000   0.0000000), wk =   0.0011574
        k(    2) = (  -0.0833333   0.0833333  -0.0833333), wk =   0.0092593
        k(    3) = (  -0.1666667   0.1666667  -0.1666667), wk =   0.0092593
        k(    4) = (  -0.2500000   0.2500000  -0.2500000), wk =   0.0092593
        k(    5) = (  -0.3333333   0.3333333  -0.3333333), wk =   0.0092593
        k(    6) = (  -0.4166667   0.4166667  -0.4166667), wk =   0.0092593
        k(    7) = (   0.5000000  -0.5000000   0.5000000), wk =   0.0046296
        k(    8) = (   0.0000000   0.1666667   0.0000000), wk =   0.0069444
        k(    9) = (  -0.0833333   0.2500000  -0.0833333), wk =   0.0277778
        k(   10) = (  -0.1666667   0.3333333  -0.1666667), wk =   0.0277778
        k(   11) = (  -0.2500000   0.4166667  -0.2500000), wk =   0.0277778
        k(   12) = (  -0.3333333   0.5000000  -0.3333333), wk =   0.0277778
        k(   13) = (   0.5833333  -0.4166667   0.5833333), wk =   0.0277778
        k(   14) = (   0.5000000  -0.3333333   0.5000000), wk =   0.0277778
        k(   15) = (   0.4166667  -0.2500000   0.4166667), wk =   0.0277778
        k(   16) = (   0.3333333  -0.1666667   0.3333333), wk =   0.0277778
        k(   17) = (   0.2500000  -0.0833333   0.2500000), wk =   0.0277778
        k(   18) = (   0.1666667  -0.0000000   0.1666667), wk =   0.0138889
        k(   19) = (   0.0000000   0.3333333   0.0000000), wk =   0.0069444
        k(   20) = (  -0.0833333   0.4166667  -0.0833333), wk =   0.0277778
        k(   21) = (  -0.1666667   0.5000000  -0.1666667), wk =   0.0277778
        k(   22) = (  -0.2500000   0.5833333  -0.2500000), wk =   0.0277778
        k(   23) = (   0.6666667  -0.3333333   0.6666667), wk =   0.0277778
        k(   24) = (   0.5833333  -0.2500000   0.5833333), wk =   0.0277778
        k(   25) = (   0.5000000  -0.1666667   0.5000000), wk =   0.0277778
        k(   26) = (   0.4166667  -0.0833333   0.4166667), wk =   0.0277778
        k(   27) = (   0.3333333   0.0000000   0.3333333), wk =   0.0138889
        k(   28) = (   0.0000000   0.5000000   0.0000000), wk =   0.0069444
        k(   29) = (  -0.0833333   0.5833333  -0.0833333), wk =   0.0277778
        k(   30) = (  -0.1666667   0.6666667  -0.1666667), wk =   0.0277778
        k(   31) = (   0.7500000  -0.2500000   0.7500000), wk =   0.0277778
        k(   32) = (   0.6666667  -0.1666667   0.6666667), wk =   0.0277778
        k(   33) = (   0.5833333  -0.0833333   0.5833333), wk =   0.0277778
        k(   34) = (   0.5000000   0.0000000   0.5000000), wk =   0.0138889
        k(   35) = (   0.0000000   0.6666667   0.0000000), wk =   0.0069444
        k(   36) = (  -0.0833333   0.7500000  -0.0833333), wk =   0.0277778
        k(   37) = (   0.8333333  -0.1666667   0.8333333), wk =   0.0277778
        k(   38) = (   0.7500000  -0.0833333   0.7500000), wk =   0.0277778
        k(   39) = (   0.6666667   0.0000000   0.6666667), wk =   0.0138889
        k(   40) = (   0.0000000   0.8333333   0.0000000), wk =   0.0069444
        k(   41) = (   0.9166667  -0.0833333   0.9166667), wk =   0.0277778
        k(   42) = (   0.8333333   0.0000000   0.8333333), wk =   0.0138889
        k(   43) = (   0.0000000  -1.0000000   0.0000000), wk =   0.0034722
        k(   44) = (  -0.1666667   0.3333333   0.0000000), wk =   0.0277778
        k(   45) = (  -0.2500000   0.4166667  -0.0833333), wk =   0.0555556
        k(   46) = (  -0.3333333   0.5000000  -0.1666667), wk =   0.0555556
        k(   47) = (   0.5833333  -0.4166667   0.7500000), wk =   0.0555556
        k(   48) = (   0.5000000  -0.3333333   0.6666667), wk =   0.0277778
        k(   49) = (  -0.1666667   0.5000000   0.0000000), wk =   0.0277778
        k(   50) = (  -0.2500000   0.5833333  -0.0833333), wk =   0.0555556
        k(   51) = (   0.6666667  -0.3333333   0.8333333), wk =   0.0555556
        k(   52) = (   0.5833333  -0.2500000   0.7500000), wk =   0.0555556
        k(   53) = (   0.5000000  -0.1666667   0.6666667), wk =   0.0555556
        k(   54) = (   0.4166667  -0.0833333   0.5833333), wk =   0.0555556
        k(   55) = (   0.3333333   0.0000000   0.5000000), wk =   0.0277778
        k(   56) = (  -0.1666667   0.6666667  -0.0000000), wk =   0.0277778
        k(   57) = (   0.7500000  -0.2500000   0.9166667), wk =   0.0555556
        k(   58) = (   0.6666667  -0.1666667   0.8333333), wk =   0.0555556
        k(   59) = (   0.5833333  -0.0833333   0.7500000), wk =   0.0555556
        k(   60) = (   0.5000000   0.0000000   0.6666667), wk =   0.0277778
        k(   61) = (   0.8333333  -0.1666667   1.0000000), wk =   0.0277778
        k(   62) = (   0.7500000  -0.0833333   0.9166667), wk =   0.0555556
        k(   63) = (   0.6666667   0.0000000   0.8333333), wk =   0.0277778
        k(   64) = (  -0.1666667  -1.0000000   0.0000000), wk =   0.0138889
        k(   65) = (   0.6666667  -0.3333333   1.0000000), wk =   0.0277778
        k(   66) = (   0.5833333  -0.2500000   0.9166667), wk =   0.0555556
        k(   67) = (   0.5000000  -0.1666667   0.8333333), wk =   0.0277778
        k(   68) = (   0.6666667  -0.1666667   1.0000000), wk =   0.0277778
        k(   69) = (   0.5833333  -0.0833333   0.9166667), wk =   0.0555556
        k(   70) = (   0.5000000   0.0000000   0.8333333), wk =   0.0277778
        k(   71) = (  -0.3333333  -1.0000000   0.0000000), wk =   0.0138889
        k(   72) = (  -0.5000000  -1.0000000   0.0000000), wk =   0.0069444

     Dense  grid:    12939 G-vectors     FFT dimensions: (  36,  36,  36)

     Largest allocated arrays     est. size (Mb)     dimensions
        Kohn-Sham Wavefunctions         0.60 Mb     (    1639,   24)
        NL pseudopotentials             0.55 Mb     (    1639,   22)
        Each V/rho on FFT grid          0.71 Mb     (   46656)
        Each G-vector array             0.10 Mb     (   12939)
        G-vector shells                 0.00 Mb     (     180)
     Largest temporary arrays     est. size (Mb)     dimensions
        Auxiliary wavefunctions         2.40 Mb     (    1639,   96)
        Each subspace H/S matrix        0.14 Mb     (      96,   96)
        Each <psi_i|beta_j> matrix      0.01 Mb     (      22,   24)

     Check: negative/imaginary core charge=   -0.000048    0.000000

     The potential is recalculated from file :
     ./out/Si.save/charge-density.dat

     Starting wfc are   32 randomized atomic wfcs

     Band Structure Calculation
     Davidson diagonalization with overlap

     ethr =  2.29E-11,  avg # of iterations = 16.2

     total cpu time spent up to now is      103.3 secs

     End of band structure calculation

          k = 0.0000 0.0000 0.0000 (  1639 PWs)   bands (ev):

    -6.8602   4.1959   4.1959   4.1959   6.2973   7.1667   7.1667   7.1667
    12.3729  14.0839  14.0839  16.2206  16.2206  16.2206  20.0278  25.4228
    25.4228  25.4228  30.7824  30.7824  30.7824  32.0225  32.0225  35.4601

          k =-0.0833 0.0833-0.0833 (  1612 PWs)   bands (ev):

    -6.7744   3.4328   4.0821   4.0821   6.5076   7.3303   7.3303   7.5363
    12.7038  13.7001  13.7001  15.9276  16.8794  16.8794  20.5818  24.9253
    25.2144  25.2144  30.1230  30.1230  31.1528  31.7635  31.7635  35.5460

          k =-0.1667 0.1667-0.1667 (  1591 PWs)   bands (ev):

    -6.5199   2.0761   3.8227   3.8227   6.3700   7.6954   7.6954   8.5816
    13.2253  13.2253  13.4176  15.5675  18.1690  18.1690  21.6647  24.0822
    24.5080  24.5080  28.9778  28.9778  31.6627  31.8020  31.8020  35.7977

          k =-0.2500 0.2500-0.2500 (  1618 PWs)   bands (ev):

    -6.1076   0.6768   3.5434   3.5434   6.1135   8.0252   8.0252   9.6948
    13.1725  13.1725  13.7253  15.9834  19.3753  19.3753  21.7343  23.5550
    23.5550  24.6652  28.3583  28.3583  31.2863  31.9956  31.9956  36.1943

          k =-0.3333 0.3333-0.3333 (  1616 PWs)   bands (ev):

    -5.5671  -0.6116   3.3163   3.3163   5.8918   8.1776   8.1776  10.6375
    13.6743  13.6743  13.7265  16.6431  19.3857  19.3857  21.4661  23.6836
    23.6836  26.3402  28.1501  28.1501  29.9503  32.1269  32.1269  35.2718

          k =-0.4167 0.4167-0.4167 (  1616 PWs)   bands (ev):

    -4.9905  -1.6504   3.1724   3.1724   5.7492   8.1955   8.1955  11.1997
    14.0483  14.5904  14.5904  16.4246  18.2125  18.2125  22.3959  25.0464
    25.0464  26.4083  28.0763  28.0763  30.1475  31.6239  31.6239  33.6758

          k = 0.5000-0.5000 0.5000 (  1622 PWs)   bands (ev):

    -4.6842  -2.1128   3.1235   3.1235   5.7005   8.1865   8.1865  11.3540
    14.4299  15.2739  15.2739  15.9890  17.3779  17.3779  23.6704  25.0845
    25.9645  25.9645  28.0072  28.0072  30.8623  30.8623  32.0424  33.0411

          k = 0.0000 0.1667 0.0000 (  1615 PWs)   bands (ev):

    -6.7457   3.5177   3.8620   3.8620   6.6879   7.1222   7.6134   7.6134
    12.8092  13.0755  14.2120  16.4491  16.4491  16.9498  20.7968  24.8881
    24.8881  25.2941  30.3853  30.4968  30.5351  30.5351  32.5380  36.2923

          k =-0.0833 0.2500-0.0833 (  1599 PWs)   bands (ev):

    -6.5470   2.4540   3.5520   3.6874   6.6986   7.2468   8.0593   8.3887
    12.4653  13.4547  14.0423  16.1452  17.2554  18.1051  21.6849  24.0718
    24.1276  25.2277  28.9426  29.3224  30.7712  31.1682  32.6615  36.6404

          k =-0.1667 0.3333-0.1667 (  1610 PWs)   bands (ev):

    -6.1859   1.1150   3.2665   3.4030   6.5838   7.5326   8.4455   9.2874
    12.3421  13.9158  14.0638  16.1033  18.5106  19.5069  21.7574  22.9808
    23.9591  25.2437  28.1220  28.2812  31.0749  31.3198  32.5072  36.4157

          k =-0.2500 0.4167-0.2500 (  1606 PWs)   bands (ev):

    -5.6833  -0.1894   3.0637   3.0861   6.3875   7.8462   8.6143  10.0688
    12.7831  14.1849  14.2622  16.6552  19.0196  20.1933  21.2690  22.5540
    24.2838  26.1896  27.7973  28.0147  30.3601  31.4347  32.0320  35.3045

          k =-0.3333 0.5000-0.3333 (  1616 PWs)   bands (ev):

    -5.1006  -1.3166   2.8182   2.9668   6.2303   7.9988   8.5824  10.8023
    13.4224  14.4708  15.0015  16.6049  18.0661  19.5841  21.8534  23.8158
    25.2522  26.5264  27.6807  28.2473  29.8913  31.0602  31.8017  34.0637

          k = 0.5833-0.4167 0.5833 (  1615 PWs)   bands (ev):

    -4.6492  -2.0205   2.6360   2.9811   6.1527   8.0845   8.4703  11.2721
    14.0044  14.9621  15.2884  16.2239  17.5055  18.5070  23.2690  25.1569
    25.4113  26.0969  27.7433  27.9280  30.2539  31.4580  31.9248  32.5700

          k = 0.5000-0.3333 0.5000 (  1616 PWs)   bands (ev):

    -4.7596  -1.8585   2.5583   3.1011   6.1662   8.1929   8.3563  11.2362
    14.1184  14.3076  15.1795  16.4261  18.0636  18.5074  22.7177  24.9819
    25.7931  25.8002  27.7224  28.1655  30.5213  31.0527  31.6606  32.8939

          k = 0.4167-0.2500 0.4167 (  1611 PWs)   bands (ev):

    -5.2973  -0.9677   2.5967   3.3127   6.2692   8.2303   8.3064  10.6945
    13.2608  13.8402  14.9342  16.6911  18.7370  19.7743  21.4101  23.3336
    24.9590  26.6716  27.9411  27.9841  29.7392  31.2097  32.2252  33.9084

          k = 0.3333-0.1667 0.3333 (  1605 PWs)   bands (ev):

    -5.8652   0.2340   2.7582   3.5891   6.4472   8.0137   8.2837   9.8879
    12.6278  13.6289  14.4269  16.5018  19.0216  20.2334  21.0518  22.7788
    24.4568  25.5547  27.8247  27.9327  30.8804  31.5331  32.0508  35.8511

          k = 0.2500-0.0833 0.2500 (  1600 PWs)   bands (ev):

    -6.3241   1.5504   3.0498   3.8790   6.6529   7.6763   7.9413   9.0751
    12.5569  13.4569  13.9770  16.1278  17.8992  19.3579  21.7207  23.3457
    24.3791  24.9045  28.2634  28.4046  31.3998  31.5673  32.1085  36.7411

          k = 0.1667-0.0000 0.1667 (  1592 PWs)   bands (ev):

    -6.6322   2.7545   3.5159   4.0846   6.7069   7.3712   7.4931   8.2401
    12.9846  13.1787  13.6735  16.2806  16.7011  18.0383  21.3016  24.1854
    24.6723  25.2418  29.2940  29.3866  31.1647  31.7218  31.8612  36.5155

          k = 0.0000 0.3333 0.0000 (  1607 PWs)   bands (ev):

    -6.4043   2.2877   3.2088   3.2088   6.3380   7.7054   8.5962   8.5962
    11.8367  13.9204  14.5931  17.1206  17.1206  17.9110  22.2418  23.5475
    23.5475  25.4660  27.9003  30.2451  30.2451  30.3023  33.1433  37.1752

          k =-0.0833 0.4167-0.0833 (  1616 PWs)   bands (ev):

    -6.0969   1.3376   2.8892   2.9048   6.3368   7.7240   9.0926   9.1489
    11.7978  14.6066  14.6902  17.0266  17.9728  19.1551  21.9265  22.5481
    23.3903  26.2230  26.9260  29.0072  30.2805  30.9757  32.9563  35.8155

          k =-0.1667 0.5000-0.1667 (  1611 PWs)   bands (ev):

    -5.6395   0.1719   2.4849   2.6965   6.5191   7.8733   9.3635   9.3840
    12.4362  14.9386  14.9853  17.1655  18.7442  20.4394  20.9984  21.7670
    24.0767  26.5410  27.0000  28.2653  30.4519  30.6017  31.9497  34.7975

          k =-0.2500 0.5833-0.2500 (  1610 PWs)   bands (ev):

    -5.0730  -0.9444   2.0887   2.6078   6.5459   8.1877   9.3681   9.7715
    13.1369  15.1297  15.4772  17.1042  18.1057  20.7337  21.2581  22.7075
    25.2704  26.3255  26.4764  28.4451  30.2124  30.7101  30.7934  33.9056

          k = 0.6667-0.3333 0.6667 (  1607 PWs)   bands (ev):

    -4.5358  -1.7922   1.7781   2.6447   6.5438   8.3279   9.2151  10.5629
    13.2782  15.3603  15.5385  16.6879  17.8439  20.2615  22.4543  24.3876
    25.0550  26.3720  26.6463  27.7220  29.5066  31.0821  32.1035  32.8671

          k = 0.5833-0.2500 0.5833 (  1602 PWs)   bands (ev):

    -4.4319  -1.9358   1.5899   2.8010   6.6088   8.4163   9.0066  11.0789
    13.2179  14.2010  15.7068  16.9009  18.8984  19.5404  22.5537  24.7608
    25.3273  25.5907  27.2231  27.6508  30.7220  31.0388  31.8100  31.8515

          k = 0.5000-0.1667 0.5000 (  1610 PWs)   bands (ev):

    -4.8892  -1.2477   1.5513   3.0579   6.7454   8.5459   8.7573  10.5824
    13.0801  13.6875  15.7185  17.0727  19.3140  20.1492  21.1207  23.5273
    25.4127  25.9739  27.9623  28.1824  29.8464  30.3576  31.9837  32.7548

          k = 0.4167-0.0833 0.4167 (  1613 PWs)   bands (ev):

    -5.4693  -0.2095   1.7046   3.3783   6.9095   8.4141   8.6071   9.7668
    12.3799  14.0243  15.2914  17.2104  19.1426  20.1268  20.8419  22.6333
    25.5754  26.2640  26.9301  27.7176  30.4812  30.6815  31.7980  34.5138

          k = 0.3333 0.0000 0.3333 (  1604 PWs)   bands (ev):

    -5.9672   0.8190   2.1676   3.6920   6.9682   7.9894   8.2506   9.3820
    12.2272  13.7809  14.6774  16.9201  18.2903  20.4429  20.5752  22.9340
    25.3618  25.4146  27.1103  27.6009  31.1130  31.3628  31.9964  35.7180

          k = 0.0000 0.5000 0.0000 (  1612 PWs)   bands (ev):

    -5.8431   0.9545   2.5773   2.5773   5.8579   7.6041   9.7493   9.7493
    11.6896  15.2150  15.2484  18.1483  18.1483  19.0013  21.9702  21.9702
    22.5728  25.5248  27.2235  30.0014  30.0014  30.4030  32.7845  34.9751

          k =-0.0833 0.5833-0.0833 (  1617 PWs)   bands (ev):

    -5.4348   0.1398   2.1732   2.3465   5.9262   7.4281  10.0214  10.2032
    12.2963  15.5579  15.7305  18.2923  18.7331  20.0528  21.0807  21.2916
    23.1348  24.7993  28.0495  29.1912  29.8516  30.6771  31.7729  33.7465

          k =-0.1667 0.6667-0.1667 (  1620 PWs)   bands (ev):

    -4.8995  -0.7829   1.6212   2.2403   6.1634   7.7776   9.9430  10.3363
    13.0965  15.7719  15.9497  18.2788  18.3235  20.3838  21.4608  21.9431
    24.4532  24.6791  27.0343  28.5796  29.7473  30.1331  31.4063  33.0641

          k = 0.7500-0.2500 0.7500 (  1617 PWs)   bands (ev):

    -4.3257  -1.6136   1.1292   2.2678   6.2738   8.6232   9.9422  10.2106
    13.1635  15.5536  15.9431  17.9258  18.2720  21.1770  21.9226  23.4555
    24.8594  24.9527  26.5884  27.4285  29.2400  29.8101  31.5859  32.9747

          k = 0.6667-0.1667 0.6667 (  1607 PWs)   bands (ev):

    -4.0345  -1.9804   0.8010   2.4249   6.4162   9.2049   9.9385  10.4319
    12.4748  14.3235  16.3626  17.8631  19.2931  21.1939  22.0485  24.1131
    24.2081  25.8174  26.2808  27.3129  30.0973  30.2440  30.9279  32.5807

          k = 0.5833-0.0833 0.5833 (  1611 PWs)   bands (ev):

    -4.3739  -1.5396   0.7015   2.6940   6.6434   9.3709   9.5471  10.4546
    12.5446  13.2077  16.4582  17.9951  20.4052  20.4141  21.1316  23.8559
    24.4758  25.1275  27.9391  28.1121  29.9990  30.1031  31.4370  32.4956

          k = 0.5000 0.0000 0.5000 (  1604 PWs)   bands (ev):

    -4.9462  -0.7969   0.9531   3.0370   6.8875   9.0087   9.3784   9.6292
    12.5393  13.5748  16.0322  17.8514  19.3796  20.5998  20.9829  22.7644
    25.1347  25.7247  27.9227  28.6036  29.7170  29.9998  31.4467  33.0621

          k = 0.0000 0.6667 0.0000 (  1624 PWs)   bands (ev):

    -5.0754  -0.3937   2.0866   2.0866   5.5243   6.8710  10.9017  10.9017
    12.4537  16.0419  16.2742  18.9196  18.9196  20.4099  21.0896  21.0896
    22.6656  23.4156  28.6851  29.3052  29.3052  29.9762  32.3459  32.9389

          k =-0.0833 0.7500-0.0833 (  1618 PWs)   bands (ev):

    -4.5801  -1.1049   1.6766   1.9507   5.6751   6.7444  11.0965  11.2561
    13.1051  16.2732  16.4263  18.5186  19.0491  20.3483  21.7122  21.9269
    22.9018  23.6456  27.4937  28.5971  28.7509  29.4089  31.8072  33.1666

          k = 0.8333-0.1667 0.8333 (  1619 PWs)   bands (ev):

    -4.0058  -1.7965   1.0521   1.9516   5.8983   7.3863  10.9920  11.2293
    13.2671  15.9544  16.1255  18.5777  19.4048  20.3426  22.6348  22.7927
    23.4311  24.6943  26.1730  27.5743  28.4093  29.0351  30.8992  33.3735

          k = 0.7500-0.0833 0.7500 (  1620 PWs)   bands (ev):

    -3.5943  -2.2225   0.5388   2.0887   6.0696   8.5533  10.8822  10.9079
    12.4495  14.7585  16.4578  19.4617  19.5036  20.8821  22.5150  22.9149
    24.1900  25.0768  25.7448  27.6961  28.6195  28.9521  30.8934  32.5495

          k = 0.6667 0.0000 0.6667 (  1612 PWs)   bands (ev):

    -3.8335  -1.9702   0.3568   2.3475   6.3314   9.6311  10.3310  10.6680
    11.7457  13.7548  16.6984  19.1239  20.2680  20.6862  21.8350  23.4416
    24.2701  24.8262  26.7163  28.2498  28.7293  29.6516  32.0087  32.2562

          k = 0.0000 0.8333 0.0000 (  1628 PWs)   bands (ev):

    -4.1266  -1.7042   1.7804   1.7804   5.4016   6.1858  11.8692  11.8692
    13.3368  16.5392  16.9509  18.2856  18.2856  21.7292  22.1757  22.1757
    22.2143  23.5877  27.3936  27.7867  27.7867  27.8850  32.2086  33.4054

          k = 0.9167-0.0833 0.9167 (  1622 PWs)   bands (ev):

    -3.5825  -2.3110   1.4268   1.7470   5.6028   6.2758  11.9593  12.0025
    13.5281  16.2879  16.6567  18.4416  18.5108  21.4636  21.9504  23.1217
    23.5159  24.6118  25.8568  26.5810  27.1863  28.2704  31.1678  33.3074

          k = 0.8333 0.0000 0.8333 (  1614 PWs)   bands (ev):

    -3.2408  -2.6057   0.8601   1.8532   5.8036   7.2306  11.6560  11.6699
    12.9603  15.5879  16.3133  19.2142  19.4419  21.3111  21.8806  23.1546
    24.1307  24.6649  25.5250  27.0124  27.4119  29.5907  29.6552  32.5899

          k = 0.0000-1.0000 0.0000 (  1604 PWs)   bands (ev):

    -3.2284  -2.7257   1.6767   1.6767   5.4280   5.8730  12.2890  12.2890
    13.7588  16.4464  17.4588  17.8310  17.8310  20.9610  23.2012  23.2012
    23.7394  24.7144  25.8026  26.2964  26.6552  26.6552  32.2337  33.2774

          k =-0.1667 0.3333 0.0000 (  1603 PWs)   bands (ev):

    -6.2942   1.7110   2.8486   3.5879   6.7857   7.4064   8.4559   8.9613
    12.0850  14.0108  14.1771  16.7052  17.4351  19.1748  21.8178  23.2384
    23.9099  25.5159  27.9155  28.6529  30.4951  31.3796  32.7909  36.4186

          k =-0.2500 0.4167-0.0833 (  1607 PWs)   bands (ev):

    -5.8845   0.6020   2.3596   3.3483   6.8896   7.6300   8.8643   9.3700
    12.2383  14.1503  14.7849  16.8568  18.5973  20.2840  20.7919  22.5926
    24.3715  26.2512  27.2101  27.8459  30.4744  31.2204  32.3510  35.1302

          k =-0.3333 0.5000-0.1667 (  1604 PWs)   bands (ev):

    -5.3468  -0.5731   2.0948   3.0623   6.7994   7.9247   8.9873   9.9460
    12.7952  14.3197  15.2776  16.9996  18.8336  20.5205  20.8481  22.6074
    25.1271  26.3341  27.2499  28.2588  29.9423  30.7048  31.7074  34.1134

          k = 0.5833-0.4167 0.7500 (  1612 PWs)   bands (ev):

    -4.7708  -1.5658   1.9651   2.8453   6.7005   8.0101   8.9936  10.7164
    13.2942  14.5508  15.5578  16.7083  18.2981  19.9493  21.9154  24.0629
    25.6783  25.9153  27.2941  28.2204  29.8103  30.9869  31.5382  33.1509

          k = 0.5000-0.3333 0.6667 (  1602 PWs)   bands (ev):

    -4.4620  -2.0178   1.9276   2.7645   6.6632   8.0099   8.9869  11.1558
    13.3259  14.9225  15.4598  16.4498  18.3549  19.2895  23.0892  24.6004
    25.5099  25.9882  26.9858  27.8081  30.5199  31.1857  31.4801  32.6220

          k =-0.1667 0.5000 0.0000 (  1617 PWs)   bands (ev):

    -5.7396   0.6084   2.2169   2.8013   6.3916   7.7280   9.3011   9.6709
    12.0917  14.9294  15.2501  17.5543  18.5232  19.9610  20.8897  22.1315
    23.5193  26.0699  27.2647  28.7069  29.8243  31.0541  32.3338  34.3251

          k =-0.2500 0.5833-0.0833 (  1611 PWs)   bands (ev):

    -5.2422  -0.3347   1.7294   2.5524   6.6813   7.9263   9.2006  10.0835
    12.7204  15.0423  15.7429  17.7254  19.0137  20.1533  20.8552  22.0453
    24.4569  25.7910  27.1067  28.7126  29.7382  30.6227  31.3038  33.1986

          k = 0.6667-0.3333 0.8333 (  1617 PWs)   bands (ev):

    -4.6628  -1.2827   1.3960   2.3670   6.7966   8.3334   9.3515  10.2600
    13.0877  14.9599  16.1345  17.3469  18.6705  21.0103  21.1645  23.1533
    25.1309  25.8944  26.6253  27.8528  29.3779  30.4769  31.5607  32.7063

          k = 0.5833-0.2500 0.7500 (  1607 PWs)   bands (ev):

    -4.2102  -1.9162   1.1701   2.3485   6.8769   8.3699   9.7704  10.6106
    12.6014  14.9515  16.1125  17.0761  18.9717  20.8328  22.2440  24.1554
    24.8539  25.7596  26.3939  27.5428  29.8237  30.4150  31.7186  32.5124

          k = 0.5000-0.1667 0.6667 (  1605 PWs)   bands (ev):

    -4.3329  -1.7482   1.0691   2.4986   7.0139   8.3150   9.6988  10.7168
    12.5236  14.1816  16.2551  17.3377  19.5122  20.6411  21.5851  24.1694
    25.0436  25.3964  26.8135  28.0837  29.9877  30.4269  31.7078  32.3385

          k = 0.4167-0.0833 0.5833 (  1610 PWs)   bands (ev):

    -4.8743  -0.9596   1.1529   2.7745   7.1798   8.2098   9.3688  10.0775
    12.7579  13.9639  16.0579  17.6163  19.5262  20.3839  20.9552  22.8598
    25.3643  25.7487  27.4907  28.3401  29.4908  30.3961  31.5448  32.6922

          k = 0.3333 0.0000 0.5000 (  1606 PWs)   bands (ev):

    -5.4344  -0.0754   1.5445   3.1020   7.2329   7.8442   9.2212   9.4777
    12.3851  14.3569  15.4546  17.5169  19.2487  19.7715  20.9204  22.4081
    25.2391  26.3006  26.7857  28.0806  30.0021  30.6717  31.8050  33.5827

          k =-0.1667 0.6667-0.0000 (  1626 PWs)   bands (ev):

    -4.9838  -0.5510   1.7440   2.1134   6.0715   7.2387  10.0920  10.8725
    12.8134  15.7204  16.1902  18.5486  19.2694  19.8493  20.8053  21.8901
    23.5536  24.2954  27.9169  28.6381  29.4487  30.3771  31.6940  32.5726

          k = 0.7500-0.2500 0.9167 (  1621 PWs)   bands (ev):

    -4.4244  -1.3057   1.2312   1.9249   6.4086   7.6296   9.9039  11.1742
    13.1647  15.3887  16.4845  18.3456  19.3901  20.0679  21.5211  22.8569
    23.8406  25.2684  26.7055  27.6714  28.7672  29.8770  31.2224  33.2238

          k = 0.6667-0.1667 0.8333 (  1616 PWs)   bands (ev):

    -3.8912  -1.9416   0.7672   1.9297   6.5760   8.6059   9.7455  11.0881
    12.6249  15.1846  16.2829  18.3876  19.5800  20.8840  22.3208  23.6297
    24.0459  24.8242  26.4920  27.3771  28.6802  29.7139  30.8259  32.7234

          k = 0.5833-0.0833 0.7500 (  1614 PWs)   bands (ev):

    -3.8294  -2.0010   0.5089   2.1059   6.7787   9.2160   9.8580  10.8524
    11.9035  14.3100  16.5730  18.5844  20.1281  21.0839  21.7416  23.6156
    24.4423  25.1154  26.1938  27.6296  29.1325  30.3060  31.6153  32.1240

          k = 0.5000 0.0000 0.6667 (  1621 PWs)   bands (ev):

    -4.3133  -1.4740   0.5911   2.4106   7.0406   8.9630   9.5061  10.6662
    12.2927  13.6151  16.5949  18.4352  20.0521  20.6466  21.1987  23.4159
    24.7139  25.0802  27.6339  27.9056  29.6462  29.9182  31.5962  32.1186

          k = 0.8333-0.1667 1.0000 (  1617 PWs)   bands (ev):

    -4.0565  -1.7386   1.4770   1.6512   5.9339   6.6444  11.0954  11.8190
    13.3585  15.9109  16.7079  18.6191  18.8670  21.0544  21.8390  22.3771
    23.2059  24.6779  26.5769  26.8374  28.5909  29.0820  30.9265  32.8111

          k = 0.7500-0.0833 0.9167 (  1620 PWs)   bands (ev):

    -3.5032  -2.3009   0.9445   1.6133   6.2615   7.3272  10.8727  11.7014
    13.0499  15.6526  16.3142  18.7991  19.7816  21.0646  22.3862  22.9293
    23.7279  24.6201  25.7813  27.1759  28.1828  29.1850  30.2320  32.2441

          k = 0.6667 0.0000 0.8333 (  1620 PWs)   bands (ev):

    -3.3795  -2.3862   0.5064   1.7913   6.4826   8.5611  10.4352  11.0826
    12.4202  14.9065  16.4507  19.2749  20.5782  20.6305  22.3238  22.9503
    24.2507  24.9226  25.4312  27.7554  28.4808  29.0837  31.5020  31.8259

          k =-0.1667-1.0000 0.0000 (  1622 PWs)   bands (ev):

    -3.1964  -2.6905   1.4343   1.4478   5.9360   6.3771  11.7474  12.0618
    13.4386  16.0767  16.5400  18.2837  19.1652  21.5095  22.3233  23.0041
    23.9837  24.6053  25.3986  26.4231  27.3821  28.4851  30.6254  32.2955

          k = 0.6667-0.3333 1.0000 (  1610 PWs)   bands (ev):

    -4.7186  -0.9597   1.1115   2.2369   7.2551   8.0027   8.9518  10.7885
    12.8685  14.5962  16.3684  18.2287  19.6307  20.0623  20.8522  22.6520
    24.7190  26.1276  26.8280  27.9115  28.8812  30.7007  31.2955  32.3653

          k = 0.5833-0.2500 0.9167 (  1611 PWs)   bands (ev):

    -4.1471  -1.6523   0.7929   1.9460   7.5250   8.2855   9.1754  11.0727
    12.4344  14.5905  16.5559  18.2029  20.0131  20.5838  21.4079  23.6173
    24.4921  25.5878  26.6291  27.3640  29.1228  30.0432  30.9744  32.5844

          k = 0.5000-0.1667 0.8333 (  1610 PWs)   bands (ev):

    -3.8252  -2.0304   0.7043   1.8325   7.5637   8.2809   9.8077  10.8646
    12.0090  14.9980  16.3361  18.0661  20.0122  21.3148  21.8787  23.5615
    24.6920  25.1721  26.1868  27.1175  29.2775  30.5135  31.5242  32.0814

          k = 0.6667-0.1667 1.0000 (  1618 PWs)   bands (ev):

    -3.8647  -1.8680   0.9291   1.4908   7.1547   7.7532   9.6374  11.5206
    12.8452  15.1529  16.5614  18.8736  19.7169  20.8956  21.5043  23.5532
    23.7935  25.2471  26.1379  27.3285  28.4466  29.5556  30.4997  33.1985

          k = 0.5833-0.0833 0.9167 (  1615 PWs)   bands (ev):

    -3.4131  -2.3020   0.6548   1.3545   7.5100   8.6078   9.4344  10.7251
    12.6917  15.3327  16.2706  18.9004  20.3206  21.2696  22.4706  23.1473
    23.7785  24.8621  25.8853  27.1032  28.7359  29.5619  31.3770  32.5514

          k = 0.5000 0.0000 0.8333 (  1612 PWs)   bands (ev):

    -3.6092  -2.1071   0.5424   1.5551   7.7083   8.8375   9.2139  10.6526
    12.4104  14.8582  16.5013  19.0155  20.1663  21.1790  21.8022  23.6795
    24.0226  25.3855  25.8209  26.7976  29.1612  29.9751  31.5715  32.1302

          k =-0.3333-1.0000 0.0000 (  1618 PWs)   bands (ev):

    -3.1287  -2.6148   1.0296   1.0591   7.1395   7.5723  10.4210  11.0663
    13.0749  15.7629  16.1116  18.7325  20.3251  21.8948  22.5201  22.8808
    23.4071  24.0770  25.7954  27.9526  28.2993  28.6939  31.1075  31.6026

          k =-0.5000-1.0000 0.0000 (  1628 PWs)   bands (ev):

    -3.0928  -2.5741   0.8514   0.8870   8.3419   8.6234   9.1476  10.0000
    13.0001  15.6791  16.0205  18.8831  20.5193  22.4609  22.5255  22.7302
    22.9615  24.8034  26.0760  26.8062  28.3839  29.6633  32.7483  33.0212

     the Fermi energy is     2.7649 ev

     Writing output data file Si.save

     init_run     :      0.35s CPU      0.42s WALL (       1 calls)
     electrons    :     95.42s CPU    102.38s WALL (       1 calls)

     Called by init_run:
     wfcinit      :      0.00s CPU      0.00s WALL (       1 calls)
     potinit      :      0.08s CPU      0.09s WALL (       1 calls)

     Called by electrons:
     c_bands      :     94.98s CPU    101.93s WALL (       1 calls)
     v_of_rho     :      0.07s CPU      0.08s WALL (       1 calls)

     Called by c_bands:
     init_us_2    :      0.13s CPU      0.14s WALL (      72 calls)
     cegterg      :     85.63s CPU     91.70s WALL (      72 calls)

     Called by *egterg:
     h_psi        :     64.02s CPU     68.70s WALL (    1311 calls)
     g_psi        :      0.18s CPU      0.20s WALL (    1167 calls)
     cdiaghg      :      5.81s CPU      6.27s WALL (    1239 calls)

     Called by h_psi:
     add_vuspsi   :      1.86s CPU      1.99s WALL (    1311 calls)

     General routines
     calbec       :      2.11s CPU      2.23s WALL (    1311 calls)
     fft          :      0.04s CPU      0.04s WALL (      11 calls)
     fftw         :     56.33s CPU     60.52s WALL (   38528 calls)
     davcio       :      0.01s CPU      0.11s WALL (      72 calls)

     Parallel routines
     fft_scatter  :      1.54s CPU      1.63s WALL (   38539 calls)

     PWSCF        :  1m38.07s CPU     1m45.38s WALL


   This run was terminated on:  16:41:53  12Feb2023            

=------------------------------------------------------------------------------=
   JOB DONE.
=------------------------------------------------------------------------------=
