
     Program PWSCF v.5.1 starts on 12Feb2023 at 16:38: 3 

     This program is part of the open-source Quantum ESPRESSO suite
     for quantum simulation of materials; please cite
         "P. Giannozzi et al., J. Phys.:Condens. Matter 21 395502 (2009);
          URL http://www.quantum-espresso.org", 
     in publications or presentations arising from this work. More details at
     http://www.quantum-espresso.org/quote

     Parallel version (MPI), running on     1 processors
     Waiting for input...
     Reading input from standard input
Warning: card   SI   0.0000000000D0   0.5000000000D0   0.5000000000D0 ignored
Warning: card   SI   0.2500000000D0   0.7500000000D0   0.7500000000D0 ignored
Warning: card   SI   -0.5000000000D0   0.0000000000D0   0.5000000000D0 ignored
Warning: card   SI   -0.2500000000D0   0.2500000000D0   0.7500000000D0 ignored
Warning: card   SI   -0.5000000000D0   0.5000000000D0   0.10000000000D0 ignored
Warning: card   SI   -0.2500000000D0   0.7500000000D0   1.25000000000D0 ignored

     Current dimensions of program PWSCF are:
     Max number of different atomic species (ntypx) = 10
     Max number of k-points (npk) =  40000
     Max angular momentum in pseudopotentials (lmaxx) =  3
               file Si.pbe-mt_fhi.UPF: wavefunction(s)  4f renormalized
               file B.pbe-mt_fhi.UPF: wavefunction(s)  4f renormalized

     Subspace diagonalization in iterative solution of the eigenvalue problem:
     a serial algorithm will be used


     G-vector sticks info
     --------------------
     sticks:   dense  smooth     PW     G-vecs:    dense   smooth      PW
     Sum         733     733    211                12939    12939    2109



     bravais-lattice index     =            2
     lattice parameter (alat)  =      10.2623  a.u.
     unit-cell volume          =     270.1967 (a.u.)^3
     number of atoms/cell      =            2
     number of atomic types    =            2
     number of electrons       =         7.00
     number of Kohn-Sham states=           24
     kinetic-energy cutoff     =      50.0000  Ry
     charge density cutoff     =     200.0000  Ry
     convergence threshold     =      1.6E-09
     mixing beta               =       0.3000
     number of iterations used =            8  plain     mixing
     Exchange-correlation      = PBE ( 1  4  3  4 0)

     celldm(1)=  10.262347  celldm(2)=   0.000000  celldm(3)=   0.000000
     celldm(4)=   0.000000  celldm(5)=   0.000000  celldm(6)=   0.000000

     crystal axes: (cart. coord. in units of alat)
               a(1) = (  -0.500000   0.000000   0.500000 )  
               a(2) = (   0.000000   0.500000   0.500000 )  
               a(3) = (  -0.500000   0.500000   0.000000 )  

     reciprocal axes: (cart. coord. in units 2 pi/alat)
               b(1) = ( -1.000000 -1.000000  1.000000 )  
               b(2) = (  1.000000  1.000000  1.000000 )  
               b(3) = ( -1.000000  1.000000 -1.000000 )  


     PseudoPot. # 1 for Si read from file:
     /home/acedemo/psudo/Si.pbe-mt_fhi.UPF
     MD5 check sum: 259057c2adf9952f9ced37ae3d9e311d
     Pseudo is Norm-conserving, Zval =  4.0
     Generated using FHI98PP, converted with fhi2upf.x v.5.0.2
     Using radial grid of  495 points,  3 beta functions with: 
                l(1) =   0
                l(2) =   1
                l(3) =   3

     PseudoPot. # 2 for  B read from file:
     /home/acedemo/psudo/B.pbe-mt_fhi.UPF
     MD5 check sum: 3ba04917d1d3a8de85490f79a9c37fe5
     Pseudo is Norm-conserving + core correction, Zval =  3.0
     Generated using FHI98PP, converted with fhi2upf.x v.5.0.2
     Using radial grid of  453 points,  3 beta functions with: 
                l(1) =   0
                l(2) =   1
                l(3) =   3

     atomic species   valence    mass     pseudopotential
        Si             4.00    28.08550     Si( 1.00)
        B              3.00    10.81100      B( 1.00)

     24 Sym. Ops. (no inversion) found



   Cartesian axes

     site n.     atom                  positions (alat units)
         1           B   tau(   1) = (   0.0000000   0.0000000   0.0000000  )
         2           Si  tau(   2) = (   0.2500000   0.2500000   0.2500000  )

     number of k points=    10  Marzari-Vanderbilt smearing, width (Ry)=  0.0500
                       cart. coord. in units 2pi/alat
        k(    1) = (   0.0000000   0.0000000   0.0000000), wk =   0.0160000
        k(    2) = (  -0.2000000   0.2000000  -0.2000000), wk =   0.1280000
        k(    3) = (  -0.4000000   0.4000000  -0.4000000), wk =   0.1280000
        k(    4) = (   0.0000000   0.4000000   0.0000000), wk =   0.0960000
        k(    5) = (  -0.2000000   0.6000000  -0.2000000), wk =   0.3840000
        k(    6) = (   0.6000000  -0.2000000   0.6000000), wk =   0.3840000
        k(    7) = (   0.4000000   0.0000000   0.4000000), wk =   0.1920000
        k(    8) = (   0.0000000   0.8000000   0.0000000), wk =   0.0960000
        k(    9) = (   0.8000000   0.0000000   0.8000000), wk =   0.1920000
        k(   10) = (   0.6000000  -0.2000000   1.0000000), wk =   0.3840000

     Dense  grid:    12939 G-vectors     FFT dimensions: (  36,  36,  36)

     Largest allocated arrays     est. size (Mb)     dimensions
        Kohn-Sham Wavefunctions         0.60 Mb     (    1639,   24)
        NL pseudopotentials             0.55 Mb     (    1639,   22)
        Each V/rho on FFT grid          0.71 Mb     (   46656)
        Each G-vector array             0.10 Mb     (   12939)
        G-vector shells                 0.00 Mb     (     180)
     Largest temporary arrays     est. size (Mb)     dimensions
        Auxiliary wavefunctions         2.40 Mb     (    1639,   96)
        Each subspace H/S matrix        0.14 Mb     (      96,   96)
        Each <psi_i|beta_j> matrix      0.01 Mb     (      22,   24)
        Arrays for rho mixing           5.70 Mb     (   46656,    8)

     Check: negative/imaginary core charge=   -0.000048    0.000000

     Initial potential from superposition of free atoms

     starting charge    6.99902, renormalised to    7.00000
     Starting wfc are   32 randomized atomic wfcs

     total cpu time spent up to now is        1.8 secs

     per-process dynamical memory:    20.5 Mb

     Self-consistent Calculation

     iteration #  1     ecut=    50.00 Ry     beta=0.30
     Davidson diagonalization with overlap
     ethr =  1.00E-02,  avg # of iterations =  4.8

     Threshold (ethr) on eigenvalues was too large:
     Diagonalizing with lowered threshold

     Davidson diagonalization with overlap
     ethr =  8.58E-04,  avg # of iterations =  1.0

     total cpu time spent up to now is        9.1 secs

     total energy              =     -14.47826900 Ry
     Harris-Foulkes estimate   =     -14.49541261 Ry
     estimated scf accuracy    <       0.06009878 Ry

     iteration #  2     ecut=    50.00 Ry     beta=0.30
     Davidson diagonalization with overlap
     ethr =  8.59E-04,  avg # of iterations =  1.0

     total cpu time spent up to now is       11.4 secs

     total energy              =     -14.48156079 Ry
     Harris-Foulkes estimate   =     -14.48286764 Ry
     estimated scf accuracy    <       0.01002095 Ry

     iteration #  3     ecut=    50.00 Ry     beta=0.30
     Davidson diagonalization with overlap
     ethr =  1.43E-04,  avg # of iterations =  1.0

     total cpu time spent up to now is       13.8 secs

     total energy              =     -14.48228359 Ry
     Harris-Foulkes estimate   =     -14.48217278 Ry
     estimated scf accuracy    <       0.00220020 Ry

     iteration #  4     ecut=    50.00 Ry     beta=0.30
     Davidson diagonalization with overlap
     ethr =  3.14E-05,  avg # of iterations =  1.5

     total cpu time spent up to now is       16.3 secs

     total energy              =     -14.48232206 Ry
     Harris-Foulkes estimate   =     -14.48232108 Ry
     estimated scf accuracy    <       0.00000835 Ry

     iteration #  5     ecut=    50.00 Ry     beta=0.30
     Davidson diagonalization with overlap
     ethr =  1.19E-07,  avg # of iterations =  2.6

     total cpu time spent up to now is       19.2 secs

     total energy              =     -14.48232346 Ry
     Harris-Foulkes estimate   =     -14.48232690 Ry
     estimated scf accuracy    <       0.00000973 Ry

     iteration #  6     ecut=    50.00 Ry     beta=0.30
     Davidson diagonalization with overlap
     ethr =  1.19E-07,  avg # of iterations =  1.0

     total cpu time spent up to now is       21.9 secs

     total energy              =     -14.48232436 Ry
     Harris-Foulkes estimate   =     -14.48232449 Ry
     estimated scf accuracy    <       0.00000036 Ry

     iteration #  7     ecut=    50.00 Ry     beta=0.30
     Davidson diagonalization with overlap
     ethr =  5.20E-09,  avg # of iterations =  1.0

     total cpu time spent up to now is       24.3 secs

     total energy              =     -14.48232443 Ry
     Harris-Foulkes estimate   =     -14.48232443 Ry
     estimated scf accuracy    <       0.00000001 Ry

     iteration #  8     ecut=    50.00 Ry     beta=0.30
     Davidson diagonalization with overlap
     ethr =  1.50E-10,  avg # of iterations =  1.0

     total cpu time spent up to now is       26.9 secs

     End of self-consistent calculation

          k = 0.0000 0.0000 0.0000 (  1639 PWs)   bands (ev):

    -6.8602   4.1960   4.1960   4.1960   6.2975   7.1667   7.1667   7.1667
    12.3728  14.0839  14.0839  16.2206  16.2206  16.2206  20.0277  25.4228
    25.4228  25.4228  30.7824  30.7824  30.7824  32.0225  32.0225  35.4601

          k =-0.2000 0.2000-0.2000 (  1606 PWs)   bands (ev):

    -6.3729   1.5106   3.7081   3.7081   6.2686   7.8435   7.8435   9.0355
    13.1402  13.1402  13.6259  15.6173  18.7060  18.7060  21.8910  24.0496
    24.1062  24.1062  28.6605  28.6605  31.6652  31.8722  31.8722  35.9410

          k =-0.4000 0.4000-0.4000 (  1616 PWs)   bands (ev):

    -5.0990  -1.4735   3.1939   3.1939   5.7705   8.1970   8.1970  11.1241
    13.9526  14.3910  14.3910  16.5313  18.4706  18.4706  22.1195  24.7497
    24.7497  26.6470  28.0901  28.0901  29.8412  31.8145  31.8145  33.8595

          k = 0.0000 0.4000 0.0000 (  1607 PWs)   bands (ev):

    -6.2056   1.7599   2.9442   2.9442   6.1363   7.7873   9.0485   9.0485
    11.6191  14.4497  14.8142  17.5000  17.5000  18.3181  22.5229  22.9108
    22.9108  25.9876  26.9253  30.1611  30.1611  30.3147  33.1648  36.4515

          k =-0.2000 0.6000-0.2000 (  1619 PWs)   bands (ev):

    -5.1384  -0.6285   1.9316   2.4641   6.4192   8.1438   9.5172   9.7568
    12.9985  15.3827  15.5817  17.5572  18.3468  20.6922  21.1321  22.0676
    24.7099  25.7873  26.7641  28.6628  30.2813  30.4255  30.8734  33.7559

          k = 0.6000-0.2000 0.6000 (  1596 PWs)   bands (ev):

    -4.3257  -1.8836   1.2041   2.6973   6.6145   8.7365   9.3046  10.9134
    12.8241  13.9704  16.0610  17.2351  19.3156  20.1504  22.1091  24.6077
    24.9794  25.4105  27.2320  27.4677  30.7755  31.0940  31.3963  31.5508

          k = 0.4000 0.0000 0.4000 (  1610 PWs)   bands (ev):

    -5.5931   0.1249   1.6370   3.4518   7.0073   8.3517   8.6630   9.4810
    12.2269  14.0543  15.1960  17.3090  19.0808  19.8127  20.9294  22.6521
    26.0399  26.1573  26.3397  27.4962  30.7400  30.9202  31.6654  34.7773

          k = 0.0000 0.8000 0.0000 (  1624 PWs)   bands (ev):

    -4.3286  -1.4483   1.8259   1.8259   5.4090   6.3022  11.7048  11.7048
    13.1783  16.5415  16.7764  18.4506  18.4506  21.8266  21.8776  21.8776
    22.0180  23.3338  27.8003  28.1280  28.1280  28.3182  32.2323  33.4827

          k = 0.8000 0.0000 0.8000 (  1622 PWs)   bands (ev):

    -3.2920  -2.5281   0.6697   1.9292   5.8920   7.7398  11.4177  11.4654
    12.6577  15.1876  16.3957  19.4509  19.8126  20.9319  22.1839  22.7710
    24.5415  24.6973  25.4248  27.3825  27.7466  29.2155  30.2881  32.2322

          k = 0.6000-0.2000 1.0000 (  1616 PWs)   bands (ev):

    -3.9313  -1.7933   0.7438   1.6340   7.6796   8.2501   8.9983  11.2935
    12.5306  14.7987  16.6002  18.8369  19.8756  20.9341  21.2513  23.7597
    24.0701  25.5128  26.4814  26.8375  29.0279  29.7606  30.6788  32.7621

     the Fermi energy is     2.8131 ev

!    total energy              =     -14.48232443 Ry
     Harris-Foulkes estimate   =     -14.48232443 Ry
     estimated scf accuracy    <          8.1E-10 Ry

     The total energy is the sum of the following terms:

     one-electron contribution =       2.71092951 Ry
     hartree contribution      =       1.11681049 Ry
     xc contribution           =      -5.27051034 Ry
     ewald contribution        =     -13.04458127 Ry
     smearing contrib. (-TS)   =       0.00502719 Ry

     convergence has been achieved in   8 iterations

     Forces acting on atoms (Ry/au):

     atom    1 type  2   force =     0.00000000    0.00000000    0.00000000
     atom    2 type  1   force =     0.00000000    0.00000000   -0.00000000

     Total force =     0.000000     Total SCF correction =     0.000000


     entering subroutine stress ...

          total   stress  (Ry/bohr**3)                   (kbar)     P= -228.41
  -0.00155268   0.00000000  -0.00000000       -228.41      0.00     -0.00
   0.00000000  -0.00155268  -0.00000000          0.00   -228.41     -0.00
  -0.00000000   0.00000000  -0.00155268         -0.00      0.00   -228.41


     Writing output data file Si.save

     init_run     :      1.62s CPU      1.67s WALL (       1 calls)
     electrons    :     23.87s CPU     25.11s WALL (       1 calls)
     forces       :      0.24s CPU      0.24s WALL (       1 calls)
     stress       :      0.98s CPU      0.98s WALL (       1 calls)

     Called by init_run:
     wfcinit      :      1.34s CPU      1.37s WALL (       1 calls)
     potinit      :      0.07s CPU      0.07s WALL (       1 calls)

     Called by electrons:
     c_bands      :     19.73s CPU     20.87s WALL (       9 calls)
     sum_band     :      3.66s CPU      3.74s WALL (       9 calls)
     v_of_rho     :      0.50s CPU      0.51s WALL (       9 calls)
     mix_rho      :      0.03s CPU      0.03s WALL (       9 calls)

     Called by c_bands:
     init_us_2    :      0.39s CPU      0.40s WALL (     210 calls)
     cegterg      :     19.42s CPU     20.54s WALL (      90 calls)

     Called by *egterg:
     h_psi        :     16.85s CPU     17.83s WALL (     249 calls)
     g_psi        :      0.03s CPU      0.03s WALL (     149 calls)
     cdiaghg      :      0.49s CPU      0.52s WALL (     229 calls)

     Called by h_psi:
     add_vuspsi   :      0.48s CPU      0.50s WALL (     249 calls)

     General routines
     calbec       :      0.60s CPU      0.65s WALL (     269 calls)
     fft          :      0.24s CPU      0.24s WALL (     125 calls)
     fftw         :     17.94s CPU     18.86s WALL (   12264 calls)
     davcio       :      0.00s CPU      0.00s WALL (      10 calls)

     Parallel routines
     fft_scatter  :      0.52s CPU      0.53s WALL (   12389 calls)

     PWSCF        :    26.88s CPU        28.20s WALL


   This run was terminated on:  16:38:32  12Feb2023            

=------------------------------------------------------------------------------=
   JOB DONE.
=------------------------------------------------------------------------------=
