
     Program PWSCF v.5.1 starts on 13Feb2023 at 23:11:55 

     This program is part of the open-source Quantum ESPRESSO suite
     for quantum simulation of materials; please cite
         "P. Giannozzi et al., J. Phys.:Condens. Matter 21 395502 (2009);
          URL http://www.quantum-espresso.org", 
     in publications or presentations arising from this work. More details at
     http://www.quantum-espresso.org/quote

     Parallel version (MPI), running on     1 processors
     Waiting for input...
     Reading input from standard input

     Current dimensions of program PWSCF are:
     Max number of different atomic species (ntypx) = 10
     Max number of k-points (npk) =  40000
     Max angular momentum in pseudopotentials (lmaxx) =  3

     Atomic positions and unit cell read from directory:
     ./out/Si.save/

               file Si.pbe-mt_fhi.UPF: wavefunction(s)  4f renormalized

     Subspace diagonalization in iterative solution of the eigenvalue problem:
     a serial algorithm will be used


     G-vector sticks info
     --------------------
     sticks:   dense  smooth     PW     G-vecs:    dense   smooth      PW
     Sum         733     733    211                12939    12939    2109



     bravais-lattice index     =            2
     lattice parameter (alat)  =      10.2623  a.u.
     unit-cell volume          =     270.1967 (a.u.)^3
     number of atoms/cell      =            2
     number of atomic types    =            1
     number of electrons       =        98.00
     number of Kohn-Sham states=           50
     kinetic-energy cutoff     =      50.0000  Ry
     charge density cutoff     =     200.0000  Ry
     Exchange-correlation      = PBE ( 1  4  3  4 0)

     celldm(1)=  10.262347  celldm(2)=   0.000000  celldm(3)=   0.000000
     celldm(4)=   0.000000  celldm(5)=   0.000000  celldm(6)=   0.000000

     crystal axes: (cart. coord. in units of alat)
               a(1) = (  -0.500000   0.000000   0.500000 )  
               a(2) = (   0.000000   0.500000   0.500000 )  
               a(3) = (  -0.500000   0.500000   0.000000 )  

     reciprocal axes: (cart. coord. in units 2 pi/alat)
               b(1) = ( -1.000000 -1.000000  1.000000 )  
               b(2) = (  1.000000  1.000000  1.000000 )  
               b(3) = ( -1.000000  1.000000 -1.000000 )  


     PseudoPot. # 1 for Si read from file:
     /home/acedemo/psudo/Si.pbe-mt_fhi.UPF
     MD5 check sum: 259057c2adf9952f9ced37ae3d9e311d
     Pseudo is Norm-conserving, Zval =  4.0
     Generated using FHI98PP, converted with fhi2upf.x v.5.0.2
     Using radial grid of  495 points,  3 beta functions with: 
                l(1) =   0
                l(2) =   1
                l(3) =   3

     atomic species   valence    mass     pseudopotential
        Si             4.00    28.08550     Si( 1.00)

     48 Sym. Ops., with inversion, found (24 have fractional translation)



   Cartesian axes

     site n.     atom                  positions (alat units)
         1           Si  tau(   1) = (   0.0000000   0.0000000   0.0000000  )
         2           Si  tau(   2) = (   0.2500000   0.2500000   0.2500000  )

     number of k points=    51  Marzari-Vanderbilt smearing, width (Ry)=  0.0500
                       cart. coord. in units 2pi/alat
        k(    1) = (   0.5000000   0.5000000   0.5000000), wk =   0.0000000
        k(    2) = (   0.4500000   0.4500000   0.4500000), wk =   0.0014779
        k(    3) = (   0.4000000   0.4000000   0.4000000), wk =   0.0029558
        k(    4) = (   0.3500000   0.3500000   0.3500000), wk =   0.0044337
        k(    5) = (   0.3000000   0.3000000   0.3000000), wk =   0.0059116
        k(    6) = (   0.2500000   0.2500000   0.2500000), wk =   0.0073895
        k(    7) = (   0.2000000   0.2000000   0.2000000), wk =   0.0088674
        k(    8) = (   0.1500000   0.1500000   0.1500000), wk =   0.0103453
        k(    9) = (   0.1000000   0.1000000   0.1000000), wk =   0.0118232
        k(   10) = (   0.0500000   0.0500000   0.0500000), wk =   0.0133011
        k(   11) = (   0.0000000   0.0000000   0.0000000), wk =   0.0147790
        k(   12) = (   0.0000000   0.1000000   0.0000000), wk =   0.0168691
        k(   13) = (   0.0000000   0.2000000   0.0000000), wk =   0.0189591
        k(   14) = (   0.0000000   0.3000000   0.0000000), wk =   0.0210492
        k(   15) = (   0.0000000   0.4000000   0.0000000), wk =   0.0231392
        k(   16) = (   0.0000000   0.5000000   0.0000000), wk =   0.0252293
        k(   17) = (   0.0000000   0.6000000   0.0000000), wk =   0.0273194
        k(   18) = (   0.0000000   0.7000000   0.0000000), wk =   0.0294094
        k(   19) = (   0.0000000   0.8000000   0.0000000), wk =   0.0314995
        k(   20) = (   0.0000000   0.9000000   0.0000000), wk =   0.0335896
        k(   21) = (   0.0000000   1.0000000   0.0000000), wk =   0.0356796
        k(   22) = (   0.0000000   0.9750000   0.0750000), wk =   0.0370621
        k(   23) = (   0.0000000   0.9500000   0.1500000), wk =   0.0384445
        k(   24) = (  -0.0000000   0.9250000   0.2250000), wk =   0.0398270
        k(   25) = (  -0.0000000   0.9000000   0.3000000), wk =   0.0412094
        k(   26) = (   0.0000000   0.8750000   0.3750000), wk =   0.0425919
        k(   27) = (   0.0000000   0.8500000   0.4500000), wk =   0.0439743
        k(   28) = (   0.0000000   0.8250000   0.5250000), wk =   0.0453568
        k(   29) = (  -0.0000000   0.8000000   0.6000000), wk =   0.0467392
        k(   30) = (  -0.0000000   0.7750000   0.6750000), wk =   0.0481217
        k(   31) = (   0.0000000   0.7500000   0.7500000), wk =   0.0495041
        k(   32) = (   0.0000000   0.7250000   0.7750000), wk =   0.0500266
        k(   33) = (   0.0000000   0.7000000   0.8000000), wk =   0.0505491
        k(   34) = (   0.0000000   0.6750000   0.8250000), wk =   0.0510717
        k(   35) = (   0.0000000   0.6500000   0.8500000), wk =   0.0515942
        k(   36) = (   0.0000000   0.6250000   0.8750000), wk =   0.0521167
        k(   37) = (   0.0000000   0.6000000   0.9000000), wk =   0.0526392
        k(   38) = (   0.0000000   0.5750000   0.9250000), wk =   0.0531617
        k(   39) = (   0.0000000   0.5500000   0.9500000), wk =   0.0536842
        k(   40) = (   0.0000000   0.5250000   0.9750000), wk =   0.0542067
        k(   41) = (   0.0000000   0.5000000   1.0000000), wk =   0.0547293
        k(   42) = (   0.0000000   0.4500000   0.9000000), wk =   0.0574942
        k(   43) = (  -0.0000000   0.4000000   0.8000000), wk =   0.0602591
        k(   44) = (  -0.0000000   0.3500000   0.7000000), wk =   0.0630239
        k(   45) = (  -0.0000000   0.3000000   0.6000000), wk =   0.0657888
        k(   46) = (   0.0000000   0.2500000   0.5000000), wk =   0.0685537
        k(   47) = (   0.0000000   0.2000000   0.4000000), wk =   0.0713186
        k(   48) = (   0.0000000   0.1500000   0.3000000), wk =   0.0740835
        k(   49) = (  -0.0000000   0.1000000   0.2000000), wk =   0.0768484
        k(   50) = (  -0.0000000   0.0500000   0.1000000), wk =   0.0796133
        k(   51) = (   0.0000000   0.0000000   0.0000000), wk =   0.0823782

     Dense  grid:    12939 G-vectors     FFT dimensions: (  36,  36,  36)

     Largest allocated arrays     est. size (Mb)     dimensions
        Kohn-Sham Wavefunctions         1.25 Mb     (    1639,   50)
        NL pseudopotentials             0.55 Mb     (    1639,   22)
        Each V/rho on FFT grid          0.71 Mb     (   46656)
        Each G-vector array             0.10 Mb     (   12939)
        G-vector shells                 0.00 Mb     (     180)
     Largest temporary arrays     est. size (Mb)     dimensions
        Auxiliary wavefunctions         5.00 Mb     (    1639,  200)
        Each subspace H/S matrix        0.61 Mb     (     200,  200)
        Each <psi_i|beta_j> matrix      0.02 Mb     (      22,   50)

     The potential is recalculated from file :
     ./out/Si.save/charge-density.dat

     Starting wfc are   32 randomized atomic wfcs +   18 random wfc

     Band Structure Calculation
     Davidson diagonalization with overlap

     ethr =  1.63E-12,  avg # of iterations = 27.3

     total cpu time spent up to now is      168.4 secs

     End of band structure calculation

          k = 0.5000 0.5000 0.5000 (  1622 PWs)   bands (ev):

   -12.4278 -12.3114  -3.5368  -3.5368  -2.6749  -2.6749  -1.5784  -0.8705
     6.2437   6.2437   7.0395   7.0395   7.5802  10.3191  15.9626  15.9626
    16.3316  17.0914  17.1819  17.1819  18.0277  19.5376  23.6349  23.6349
    26.5750  26.5750  26.6212  26.6212  26.8582  27.2339  27.2339  28.3536
    29.3096  30.8103  34.8954  34.8954  36.9379  37.4058  37.4058  38.6718
    43.4657  43.4657  44.4296  45.0690  45.0690  46.5839  46.5839  47.1919
    47.3139  47.5345

          k = 0.4500 0.4500 0.4500 (  1610 PWs)   bands (ev):

   -13.0794 -11.5875  -3.5645  -3.5645  -2.5756  -2.5756  -1.6088  -0.7788
     5.4037   5.4037   7.2056   7.9525   7.9525  10.7353  14.8009  14.8009
    14.9213  16.6002  18.4070  18.4070  19.1050  20.4648  23.5298  23.5298
    26.0540  26.0540  26.5738  27.1482  27.1482  27.4679  27.4679  28.7144
    29.1176  31.0600  34.9088  34.9088  36.9128  37.4481  37.4481  38.7422
    42.4933  42.4933  43.5927  44.2582  44.2582  46.6707  47.2455  47.2455
    48.0995  48.1040

          k = 0.4000 0.4000 0.4000 (  1616 PWs)   bands (ev):

   -13.7130 -10.7374  -3.6110  -3.6110  -2.3145  -2.3145  -1.6598  -0.5458
     4.3350   4.3350   6.4305   9.2401   9.2401  11.5595  13.1392  13.2570
    13.2570  15.3667  20.1290  20.1290  20.7644  22.1897  23.2801  23.2801
    25.5597  25.5597  26.0542  27.7239  27.7239  28.0509  28.0509  28.7658
    29.4630  31.5896  34.9497  34.9497  36.8416  37.5645  37.5645  38.9401
    40.4247  40.4247  42.1457  43.4000  43.4000  45.6845  47.1644  47.1644
    48.7945  48.7945

          k = 0.3500 0.3500 0.3500 (  1610 PWs)   bands (ev):

   -14.2737  -9.8165  -3.6278  -3.6278  -1.9417  -1.9417  -1.6828  -0.2266
     3.3219   3.3219   5.5738  10.6140  10.6140  10.9261  11.7560  11.7560
    13.0116  14.0965  21.8063  21.8063  22.3000  23.0885  23.0885  24.1595
    25.1389  25.1389  25.5334  28.4258  28.4258  28.5110  28.7661  28.7661
    30.3655  32.1709  35.0179  35.0179  36.7275  37.5874  37.5874  38.3377
    38.3377  39.2315  40.7591  42.5820  42.5820  44.6715  46.2126  46.2126
    48.8161  48.8161

          k = 0.3000 0.3000 0.3000 (  1615 PWs)   bands (ev):

   -14.7607  -8.8270  -3.5914  -3.5914  -1.6581  -1.4846  -1.4846   0.1451
     2.3837   2.3837   4.7370   9.1659  10.2982  10.2982  12.0838  12.0838
    12.8601  14.1670  22.3288  22.3288  23.6381  23.9564  23.9564  24.9381
    24.9381  25.0635  26.0521  28.6668  29.2363  29.2363  29.5391  29.5391
    31.3698  32.6421  35.0658  35.0658  35.8583  35.8583  36.5827  38.1408
    38.1408  39.4306  39.8265  41.8158  41.8158  43.6993  44.9860  44.9860
    47.3907  47.3907

          k = 0.2500 0.2500 0.2500 (  1618 PWs)   bands (ev):

   -15.1735  -7.7715  -3.4923  -3.4923  -1.5812  -0.9659  -0.9659   0.5369
     1.5365   1.5365   3.9613   7.4279   8.9288   8.9288  11.7047  13.6047
    13.6047  15.4194  22.0947  22.0947  24.2380  24.2380  24.5655  24.6588
    26.2200  26.2200  27.4058  29.8612  30.0813  30.0813  30.3235  30.3235
    32.4615  32.7749  33.6534  33.6534  35.3491  35.3491  36.5351  38.3955
    38.3955  38.9167  40.0771  41.1384  41.1384  42.7972  43.7243  43.7243
    45.7185  45.7185

          k = 0.2000 0.2000 0.2000 (  1606 PWs)   bands (ev):

   -15.5116  -6.6542  -3.3264  -3.3264  -1.4574  -0.4581  -0.4581   0.8495
     0.8495   0.8934   3.2763   5.8001   7.6301   7.6301  10.6386  15.1912
    15.1912  16.7030  21.8445  21.8445  24.0202  24.0202  24.3246  24.8651
    28.0909  28.0909  28.5402  30.3615  30.3615  31.1462  31.1462  31.9025
    32.3527  32.3527  32.4305  33.6352  35.5358  35.5358  36.8170  38.5985
    38.5985  38.6683  40.3951  40.5747  40.5747  42.0478  42.5687  42.5687
    44.0931  44.0931

          k = 0.1500 0.1500 0.1500 (  1600 PWs)   bands (ev):

   -15.7748  -5.4827  -3.0923  -3.0923  -1.3058  -0.4014  -0.4014   0.7601
     0.7601   1.1038   2.6845   4.4086   6.4068   6.4068   9.6922  16.8287
    16.8287  17.9741  21.6451  21.6451  23.8237  23.8237  24.0634  24.6991
    28.4036  28.4036  29.7002  30.5700  30.5700  31.9114  32.0546  32.0546
    32.7709  32.7709  34.1607  34.8885  35.7972  35.7972  37.3974  38.6233
    38.6233  38.6719  40.0314  40.0314  40.3354  41.7119  41.7119  41.7524
    42.6493  42.6493

          k = 0.1000 0.1000 0.1000 (  1606 PWs)   bands (ev):

   -15.9629  -4.2729  -2.7897  -2.7897  -1.1865  -0.9025  -0.9025   1.0413
     1.3713   1.3713   1.9838   3.6202   5.2637   5.2637   8.9126  18.4799
    18.4799  19.1706  21.5290  21.5290  23.6783  23.6783  23.8762  24.2895
    26.6274  26.6274  30.1650  32.1491  32.3769  32.3769  32.9579  32.9579
    33.6665  33.6665  36.1481  36.1481  36.2201  36.2314  37.9584  38.4795
    38.4795  38.7986  39.3220  39.3220  40.1155  40.8237  40.8237  41.9069
    41.9988  41.9988

          k = 0.0500 0.0500 0.0500 (  1630 PWs)   bands (ev):

   -16.0759  -3.0657  -2.4221  -2.4221  -1.4483  -1.4483  -1.2932   0.7823
     1.1979   2.1562   2.1562   3.4975   4.2187   4.2187   8.3768  19.9705
    19.9705  20.1563  21.6074  21.6074  23.5880  23.5880  23.7637  23.7924
    24.8183  24.8183  29.9184  33.1463  33.4240  33.4240  34.1543  34.1543
    34.5830  34.5830  36.6508  36.6508  37.2045  37.6290  38.3319  38.3486
    38.3486  38.7722  38.7722  38.8814  39.7127  39.7127  40.6806  40.8845
    40.8845  41.0047

          k = 0.0000 0.0000 0.0000 (  1639 PWs)   bands (ev):

   -16.1135  -2.0799  -2.0799  -2.0799  -1.8539  -1.8539  -1.8539   0.6249
     0.8998   2.7700   2.7700   3.5222   3.5222   3.5222   8.1813  20.5923
    20.5923  20.5923  22.0263  22.0263  23.5229  23.5229  23.5229  23.7261
    23.7261  23.7261  29.7804  33.6966  33.6966  33.6966  34.6959  34.6959
    35.0975  35.0975  37.0337  37.0337  37.0337  38.7781  38.7781  38.7781
    38.8502  38.8502  38.8502  39.0670  39.0670  39.0670  39.1658  39.1658
    39.1658  41.9590

          k = 0.0000 0.1000 0.0000 (  1627 PWs)   bands (ev):

   -16.0633  -2.8775  -2.8775  -2.3211  -2.1198  -0.9697  -0.9697   0.7041
     1.2558   1.7171   2.8205   3.5798   3.5798   4.6871   8.4600  19.7404
    19.7404  20.6397  20.7684  21.5453  23.6445  23.6445  23.7674  24.5826
    24.5826  25.0637  29.9609  32.9730  32.9730  33.6182  33.6576  34.0568
    34.5212  34.9349  36.5889  36.5889  36.9028  37.5341  37.5341  38.3531
    38.3531  39.3400  39.4479  39.4614  39.7165  39.7579  39.7579  41.1848
    41.1848  41.2449

          k = 0.0000 0.2000 0.0000 (  1599 PWs)   bands (ev):

   -15.9127  -3.6871  -3.6871  -2.8474  -2.6841  -0.4253   0.0955   0.0955
     1.9781   2.0898   2.9721   3.7569   3.7569   5.8460   9.3814  18.2375
    18.2375  19.0092  20.5597  20.7816  23.7808  23.7808  24.0858  26.3140
    26.3140  27.0505  30.2847  31.1628  31.1628  31.6427  32.2992  33.4898
    34.0966  34.5660  35.5929  35.5929  36.4796  36.7732  36.7732  38.1264
    38.1264  39.9916  40.0130  40.0595  40.1866  40.5444  40.5444  41.1298
    41.1298  41.2024

          k = 0.0000 0.3000 0.0000 (  1607 PWs)   bands (ev):

   -15.6619  -4.4058  -4.4058  -3.4366  -3.3002  -1.9895   1.2227   1.2227
     2.9163   3.1527   3.2246   4.0691   4.0691   6.6478  10.9338  16.6781
    16.6781  17.2881  19.4075  21.0178  23.9976  23.9976  24.1856  27.9655
    27.9655  29.0901  29.2051  29.2051  29.4139  29.8291  31.1533  33.5788
    33.6180  34.2109  34.7070  34.7070  35.9371  36.0946  36.0946  37.4234
    37.4234  39.0091  39.3185  40.9167  40.9167  41.0678  41.2182  42.1417
    42.1417  42.3662

          k = 0.0000 0.4000 0.0000 (  1607 PWs)   bands (ev):

   -15.3111  -5.0305  -5.0305  -4.0191  -3.8781  -3.5047   2.3669   2.3669
     3.5782   4.0042   4.3495   4.5576   4.5576   7.2996  12.8793  15.1669
    15.1669  15.6481  18.2029  21.3473  23.8524  24.2908  24.2908  26.3152
    26.3152  27.1606  28.6741  30.5560  30.5560  30.5837  30.8997  33.0623
    33.8450  33.8450  34.0817  34.2024  35.3832  35.4870  35.4870  36.5103
    36.5103  38.1862  38.4978  41.7138  41.7138  42.2687  42.4483  43.3182
    43.4259  43.4259

          k = 0.0000 0.5000 0.0000 (  1612 PWs)   bands (ev):

   -14.8606  -5.5600  -5.5600  -5.0637  -4.4258  -4.3863   3.4386   3.4386
     4.0327   5.1570   5.3090   5.3090   5.6387   7.9780  13.7318  13.7318
    14.0994  15.0398  17.0052  21.7667  22.8614  23.8800  23.8800  24.7668
    24.7668  24.9504  28.0687  29.8247  31.7897  32.5692  32.5692  32.5923
    32.9788  32.9788  34.3231  34.8492  34.9690  34.9690  35.2609  35.7851
    35.7851  37.0278  38.8166  42.7262  42.7262  43.3202  43.6137  43.8338
    44.8301  44.8301

          k = 0.0000 0.6000 0.0000 (  1620 PWs)   bands (ev):

   -14.3109  -6.4404  -5.9938  -5.9938  -4.8552  -4.8116   4.3549   4.3549
     4.5881   6.3143   6.4010   6.4010   6.9862   8.7802  12.3860  12.3860
    12.6462  15.8594  17.3328  21.3550  21.6035  21.6035  22.2097  22.8842
    25.2017  25.2017  28.0229  28.9681  31.8345  31.8964  31.8964  32.1906
    34.0723  34.2213  34.2213  34.3086  34.5888  34.5888  35.8176  35.8176
    35.9826  37.3238  39.9423  41.0958  43.8330  43.8330  45.0745  45.3547
    46.3421  46.3421

          k = 0.0000 0.7000 0.0000 (  1632 PWs)   bands (ev):

   -13.6624  -7.7474  -6.3315  -6.3315  -5.1812  -5.1477   5.1657   5.1657
     5.2444   7.4137   7.7663   7.7663   8.3345   9.7693  11.1485  11.1485
    11.2903  14.8226  19.3634  19.3634  19.6493  19.7041  20.7088  22.9675
    25.7604  25.7604  27.7624  28.5865  30.8739  30.8739  31.6784  31.8680
    33.4752  33.6653  34.1418  34.1418  34.3921  34.3921  35.1976  37.6264
    37.6264  38.4320  39.7474  41.6961  44.9378  44.9378  46.6241  47.0009
    47.6749  47.8283

          k = 0.0000 0.8000 0.0000 (  1624 PWs)   bands (ev):

   -12.9158  -8.9675  -6.5728  -6.5728  -5.4133  -5.3910   5.9683   5.9683
     6.0014   8.4128   9.1119   9.1119   9.5341  10.0331  10.2102  10.2102
    10.9590  14.0187  17.2151  17.2151  17.9456  18.7965  22.0732  23.7499
    26.4037  26.4037  26.8642  28.9200  29.8725  29.8725  31.5262  31.6297
    32.4808  32.8648  33.9170  33.9170  34.1723  34.1723  34.7667  36.3860
    39.8110  39.8110  42.3172  43.6047  45.8513  45.8513  48.1980  48.7611
    49.0268  49.2231

          k = 0.0000 0.9000 0.0000 (  1608 PWs)   bands (ev):

   -12.0719 -10.0964  -6.7176  -6.7176  -5.5508  -5.5397   6.8128   6.8128
     6.8590   8.6987   8.6987   8.8751   9.2963  10.1932  11.2353  11.2353
    12.2736  13.7007  15.1931  15.1931  16.4591  17.1045  23.9213  25.1548
    25.9158  27.1146  27.1146  28.8725  28.9377  28.9377  31.3192  31.4316
    31.4781  32.0247  33.7775  33.7775  34.0300  34.0300  34.6300  35.2321
    41.8229  41.8229  44.9532  45.6571  46.1522  46.1522  49.2627  49.6335
    50.4701  50.5813

          k = 0.0000 1.0000 0.0000 (  1604 PWs)   bands (ev):

   -11.1317 -11.1317  -6.7659  -6.7659  -5.5931  -5.5931   7.6020   7.6020
     7.8170   7.8170   7.8653   7.8653   9.9919   9.9919  12.5420  12.5420
    13.4174  13.4174  13.7417  13.7417  15.9962  15.9962  24.9742  24.9742
    27.3061  27.3061  27.6773  27.6773  28.2991  28.2991  31.3294  31.3294
    31.4130  31.4130  33.7308  33.7308  33.9820  33.9820  34.7519  34.7519
    42.8697  42.8697  45.9026  45.9026  47.5498  47.5498  47.7564  47.7564
    51.0879  51.0879

          k = 0.0000 0.9750 0.0750 (  1618 PWs)   bands (ev):

   -11.3480 -10.8541  -7.0882  -7.0879  -5.2139  -5.2114   6.4140   6.8824
     7.5282   7.9702   8.3579   8.8084  10.1448  10.4455  12.0525  12.1206
    13.5408  13.6181  13.8128  14.2038  16.1204  16.3559  24.2721  24.7267
    26.5797  27.0982  27.7061  27.8598  28.5693  28.9981  30.5182  30.5355
    31.4341  31.6687  33.6248  33.6393  34.1982  34.2139  35.8475  35.9017
    42.5709  42.6766  45.5358  45.5999  47.0319  47.5332  48.1049  48.3333
    50.3439  50.6244

          k = 0.0000 0.9500 0.1500 (  1622 PWs)   bands (ev):

   -11.5028 -10.5155  -7.6390  -7.6381  -4.4905  -4.4850   4.9773   5.9162
     7.3529   8.2507   8.5353   9.3054  10.3717  11.2126  11.6657  11.6995
    13.5446  13.9131  14.0510  15.0500  16.7010  17.1079  23.0638  23.9417
    25.8367  26.0134  27.2072  28.1216  28.9827  29.2403  29.3802  30.3209
    31.6078  31.8282  33.7440  34.0297  34.9609  35.0267  37.7178  37.7400
    41.6146  42.2275  44.9411  45.0209  46.2572  47.4657  47.7862  48.3178
    48.8071  50.0361

          k =-0.0000 0.9250 0.2250 (  1622 PWs)   bands (ev):

   -11.5959 -10.1164  -8.1865  -8.1853  -3.6571  -3.6461   3.5404   4.9438
     7.2142   8.4713   8.6164   9.4011   9.8508  10.9331  12.2817  12.3503
    13.8137  14.1580  14.5017  15.9528  17.6380  18.0822  21.7220  23.0145
    24.7749  25.1510  26.1907  26.9179  27.6411  29.3317  30.2639  31.3383
    31.6980  32.0873  34.3880  35.2241  35.7976  35.9289  39.6705  39.7638
    40.3351  41.5921  43.8841  44.2745  45.4666  45.9490  47.5147  47.7448
    47.9914  49.4111

          k =-0.0000 0.9000 0.3000 (  1623 PWs)   bands (ev):

   -11.6274  -9.6579  -8.6902  -8.6896  -2.7615  -2.7370   2.1423   4.0047
     7.0840   8.4591   8.5729   9.0614   9.5016  10.9671  12.7100  12.8962
    14.4580  14.7077  15.0648  17.0207  18.7862  19.1310  20.3732  22.0490
    23.5217  24.4474  24.8035  25.4002  26.7496  29.5778  30.5597  31.6719
    32.1788  33.4362  35.2143  36.6045  36.7291  36.8968  39.0316  40.6101
    41.2524  41.8635  42.5166  43.3747  44.8298  44.9103  46.8978  46.9306
    47.3768  48.9588

          k = 0.0000 0.8750 0.3750 (  1614 PWs)   bands (ev):

   -11.5971  -9.1881  -9.1405  -9.0927  -1.8474  -1.7741   0.8298   3.1179
     6.9016   7.8138   8.5734   8.6179   9.7789  11.3124  12.8439  13.2432
    15.1568  15.3292  16.0366  18.1812  18.9940  20.0316  20.1747  21.0506
    22.3650  23.0070  24.1223  24.1287  26.1439  29.5131  30.3138  32.2552
    33.2659  34.5935  35.7967  37.5051  37.7460  37.9066  38.6258  39.6533
    39.8752  42.1349  43.2575  43.8780  44.4507  44.6222  46.1260  46.5796
    46.7935  48.2184

          k = 0.0000 0.8500 0.4500 (  1612 PWs)   bands (ev):

   -11.5053  -9.5406  -9.5341  -8.5578  -1.2646  -0.7796  -0.0453   2.3061
     6.5698   7.0468   8.2443   8.7236  10.2476  11.7871  12.9406  13.4781
    15.7658  15.8926  17.3381  17.7179  18.9489  19.8371  20.7194  21.2630
    21.5530  21.6889  23.4677  23.9191  25.7535  29.2773  29.9984  32.9027
    34.4707  34.5495  36.3096  36.9156  38.0218  38.5840  38.6371  39.6381
    40.2610  41.5060  43.0688  43.5251  44.7137  45.2522  45.9375  46.2447
    47.4782  47.8031

          k = 0.0000 0.8250 0.5250 (  1611 PWs)   bands (ev):

   -11.3522  -9.8746  -9.8684  -7.9278  -2.0764   0.1463   0.5819   1.6672
     6.0709   6.3040   8.1617   8.8793  10.7834  12.3283  13.0412  13.7029
    16.2420  16.4039  16.5218  18.4720  18.7867  18.9051  19.6084  20.8108
    21.2844  22.9513  24.0074  24.0735  25.7327  28.9809  29.7063  32.6845
    34.4615  35.2116  35.4679  35.6421  38.0677  39.3977  39.6456  40.6137
    40.8765  41.7630  42.7647  43.2045  44.1781  44.9843  45.4281  46.4260
    47.2101  48.1846

          k =-0.0000 0.8000 0.6000 (  1614 PWs)   bands (ev):

   -11.1383 -10.1494 -10.1420  -7.2512  -3.2171   0.3492   1.6441   1.8461
     5.5022   5.6200   8.2600   9.0851  11.3460  12.8947  13.1401  13.9386
    15.2965  16.3940  16.9727  17.1323  18.1870  18.5606  20.2026  20.2331
    21.1337  24.1557  24.3874  25.4753  26.3576  28.6443  29.4505  31.6406
    33.2681  33.4343  35.6533  36.6031  38.8655  39.7249  40.3449  40.9213
    41.0187  42.6747  42.9700  43.1733  43.3888  44.9543  45.2592  46.1134
    46.3415  47.2292

          k =-0.0000 0.7750 0.6750 (  1621 PWs)   bands (ev):

   -10.8660 -10.3636 -10.3522  -6.5639  -4.2999  -0.1725   2.7481   2.8067
     4.9715   5.0444   8.4777   9.3370  11.8589  13.1513  13.4431  14.0175
    14.4165  15.5179  16.4883  16.5104  17.8893  18.4021  19.8229  20.5148
    22.0609  24.0795  25.6799  27.3148  27.3597  28.2457  29.1951  30.6820
    31.4156  31.8539  36.6688  37.0173  39.0598  39.9721  40.0206  40.8674
    41.0589  42.7398  42.9934  43.5754  43.7139  44.6429  45.6843  45.8359
    46.1326  47.3072

          k = 0.0000 0.7500 0.7500 (  1624 PWs)   bands (ev):

   -10.5839 -10.5169 -10.4501  -6.1644  -4.9929  -0.7579   3.5663   3.6134
     4.7805   4.8727   8.7886   9.6218  11.9889  12.9454  13.5513  13.5730
    14.2308  14.6619  15.6152  16.2984  18.1763  18.3545  19.9198  20.2554
    23.3838  24.2168  26.3730  27.9711  27.9895  28.8701  28.8833  29.9366
    30.3688  31.0477  36.7906  37.3693  38.1966  39.0385  40.3544  40.8987
    41.2710  42.7216  43.2560  43.6414  43.6952  44.9005  45.2181  45.9298
    47.2249  48.4578

          k = 0.0000 0.7250 0.7750 (  1616 PWs)   bands (ev):

   -10.5777 -10.5108 -10.4441  -6.3340  -4.8127  -0.7535   3.4206   3.4642
     4.9370   5.0294   8.7978   9.6222  11.8817  12.8581  13.4473  13.6603
    14.1376  14.8103  15.7562  16.3514  18.1860  18.3586  19.9196  20.2524
    23.1925  24.4068  26.1907  27.7428  28.0145  28.3737  28.9795  30.2583
    30.7095  31.2299  36.7827  36.9567  38.3388  39.2885  40.2777  40.8727
    41.3072  42.6186  43.3767  43.4812  43.8210  44.6579  45.4994  45.9893
    46.9575  48.1411

          k = 0.0000 0.7000 0.8000 (  1621 PWs)   bands (ev):

   -10.5591 -10.4924 -10.4258  -6.6906  -4.4240  -0.7403   3.0983   3.1420
     5.2806   5.3845   8.8260   9.6227  11.6247  12.6199  13.2297  13.6541
    14.1527  15.1466  16.0887  16.5001  18.2156  18.3710  19.9174  20.2422
    22.8239  24.7670  25.7635  27.2300  27.3915  28.2801  29.1175  30.6356
    31.5554  31.7044  36.2404  36.7587  38.4068  39.8421  40.0977  40.8304
    41.3330  42.4984  43.2783  43.5200  43.9172  44.4355  45.8715  46.0863
    46.5676  47.4778

          k = 0.0000 0.6750 0.8250 (  1620 PWs)   bands (ev):

   -10.5280 -10.4618 -10.3955  -7.0988  -3.9628  -0.7191   2.7191   2.7684
     5.6885   5.8182   8.8740   9.6204  11.3075  12.2895  12.9771  13.3588
    14.4914  15.5542  16.5059  16.7221  18.2668  18.3914  19.9083  20.2218
    22.4164  25.1351  25.2443  26.4782  26.6694  28.4080  29.2310  31.1301
    32.3435  32.4851  35.4946  36.7186  38.3922  39.8809  40.2286  40.9770
    41.2359  42.4917  43.0949  43.4649  43.9039  44.4683  45.8965  46.0448
    46.6399  47.0807

          k = 0.0000 0.6500 0.8500 (  1616 PWs)   bands (ev):

   -10.4845 -10.4190 -10.3530  -7.5182  -3.4700  -0.6906   2.3261   2.3844
     6.1173   6.2868   8.9436   9.6094  10.9791  11.9178  12.7051  13.0081
    14.9220  15.9851  16.9623  16.9940  18.3428  18.4198  19.8832  20.1850
    22.0014  24.7133  25.3485  25.5515  26.2648  28.5030  29.3383  31.7144
    33.0566  33.3456  34.8503  36.6633  38.3290  39.6603  40.2039  41.0307
    41.3979  42.4871  43.0248  43.3660  43.7119  44.6040  45.7177  45.7837
    46.9794  47.2513

          k = 0.0000 0.6250 0.8750 (  1616 PWs)   bands (ev):

   -10.4286 -10.3640 -10.2984  -7.9364  -2.9594  -0.6568   1.9353   2.0052
     6.5482   6.7731   9.0373   9.5789  10.6678  11.5320  12.4227  12.6567
    15.3908  16.4146  17.2976  17.4372  18.4491  18.4574  19.8280  20.1207
    21.5918  24.2191  24.6281  25.0925  26.3565  28.5676  29.4562  32.3101
    33.5834  33.7879  34.8965  36.5972  38.2157  39.4496  40.0592  40.7885
    41.6213  42.3064  43.1027  43.4509  43.5066  44.4822  45.6290  45.7109
    47.3954  47.6768

          k = 0.0000 0.6000 0.9000 (  1613 PWs)   bands (ev):

   -10.3602 -10.2969 -10.2317  -8.3483  -2.4384  -0.6210   1.5551   1.6396
     6.9674   7.2656   9.1582   9.5119  10.3991  11.1451  12.1405  12.3224
    15.8836  16.8224  17.6176  17.9081  18.5137  18.5940  19.7268  20.0104
    21.2027  23.7126  23.8014  24.6218  26.7088  28.6066  29.5954  32.5622
    33.4255  34.4873  35.7281  36.5346  38.0464  39.2544  39.9061  40.5564
    41.5529  41.9985  42.7768  43.5695  43.9340  44.1342  45.7778  45.7884
    47.8582  48.1634

          k = 0.0000 0.5750 0.9250 (  1615 PWs)   bands (ev):

   -10.2795 -10.2178 -10.1530  -8.7514  -1.9147  -0.5891   1.1937   1.2963
     7.3610   7.7470   9.3075   9.3980  10.1934  10.7641  11.8726  12.0186
    16.3941  17.1896  17.9340  18.2818  18.6665  18.7793  19.5778  19.8286
    20.8593  22.8091  23.4931  24.1695  27.1037  28.6156  29.7640  32.0672
    33.9191  35.0782  36.5160  36.6564  37.8395  39.0787  39.7676  40.3602
    41.3543  41.6560  42.3694  43.2228  44.2155  44.5667  45.8151  46.0166
    48.3566  48.6695

          k = 0.0000 0.5500 0.9500 (  1615 PWs)   bands (ev):

   -10.1863 -10.1271 -10.0622  -9.1443  -1.4032  -0.5722   0.8662   0.9880
     7.7144   8.1652   9.2844   9.4788  10.0429  10.3940  11.6401  11.7608
    16.9171  17.5026  18.2109  18.3903  18.9287  19.0465  19.4807  19.5737
    20.5874  21.9194  23.3170  23.7933  27.4947  28.5770  29.9692  31.4548
    34.5323  35.4314  36.6214  37.2636  37.8933  38.9346  39.6483  40.2065
    41.1138  41.3274  42.0543  42.6797  44.5270  45.1649  45.7709  46.1866
    48.8694  49.1235

          k = 0.0000 0.5250 0.9750 (  1615 PWs)   bands (ev):

   -10.0808 -10.0265  -9.9594  -9.5244  -0.9461  -0.5904   0.6148   0.7357
     8.0143   8.3600   9.3522   9.6431   9.9101  10.0420  11.4812  11.5675
    17.4423  17.7512  18.3390  18.3481  18.8834  19.1820  19.6014  19.6928
    20.3959  21.0531  23.2731  23.5153  27.8650  28.4559  30.2169  30.9114
    35.0788  35.4977  36.8293  37.1021  38.5703  38.8483  39.6043  40.0608
    40.8922  41.0591  41.8913  42.1904  44.8664  45.4310  45.8343  46.2300
    49.2668  49.5048

          k = 0.0000 0.5000 1.0000 (  1628 PWs)   bands (ev):

    -9.9628  -9.9628  -9.8446  -9.8446  -0.6707  -0.6707   0.5669   0.5669
     8.2502   8.2502   9.6673   9.6673   9.7924   9.7924  11.4569  11.4569
    17.8505  17.8505  18.2252  18.2252  18.9693  18.9693  19.9506  19.9506
    20.3683  20.3683  23.3434  23.3434  28.2060  28.2060  30.5099  30.5099
    35.4032  35.4032  36.9480  36.9480  38.8410  38.8410  39.8389  39.8389
    40.8620  40.8620  41.9056  41.9056  45.1951  45.1951  46.1124  46.1124
    49.5921  49.5921

          k = 0.0000 0.4500 0.9000 (  1616 PWs)   bands (ev):

   -11.0739  -9.6046  -9.5951  -9.1026  -1.1320  -0.8602   0.1863   1.8133
     7.1757   7.8592   8.8027   9.0053   9.8138  11.2657  12.1137  12.6619
    16.4453  16.5142  17.8032  18.0809  18.7972  19.5399  20.1312  20.7499
    21.2586  21.3399  23.3052  23.9612  26.3679  29.1101  30.0440  32.1264
    34.7165  34.8159  36.4766  37.3339  38.4239  38.5914  38.9548  39.6238
    40.0221  41.9014  42.8043  43.5522  44.1799  45.0398  46.0931  46.1465
    47.8717  48.4753

          k =-0.0000 0.4000 0.8000 (  1616 PWs)   bands (ev):

   -12.1230  -9.1755  -9.1693  -8.1920  -1.5514  -1.3299  -0.0093   3.5014
     6.0596   6.4631   7.6798   8.1787  10.6074  12.0169  14.0395  14.0817
    14.5734  14.8383  16.1524  18.0874  18.8409  21.0366  21.2761  21.3475
    22.5048  22.5072  23.2987  24.0912  26.0721  29.6293  30.2094  32.8739
    33.3009  35.0024  35.8157  37.0828  37.5613  38.1584  38.4191  39.1385
    39.8523  40.6380  42.8386  44.0043  44.4922  45.3719  45.9654  47.0210
    47.0775  47.6478

          k =-0.0000 0.3500 0.7000 (  1618 PWs)   bands (ev):

   -13.0532  -8.6290  -8.6226  -7.1629  -1.9018  -1.7292  -0.0439   4.4235
     5.1157   5.7697   6.7833   7.2671  11.5708  11.5870  12.3603  13.6417
    13.7581  16.3981  17.4707  18.1640  18.9380  20.2328  21.6399  22.5751
    23.0556  23.9725  24.4367  25.4162  27.4089  29.9768  30.3468  32.0103
    32.0470  34.7501  35.4469  36.5308  37.1641  38.1255  38.3212  38.7188
    39.2781  39.8488  41.2436  43.3186  43.4315  44.6453  44.9536  46.9573
    47.7624  49.0294

          k =-0.0000 0.3000 0.6000 (  1609 PWs)   bands (ev):

   -13.8620  -7.9652  -7.9573  -6.0209  -2.1616  -2.0239   0.0603   3.5214
     3.8703   5.6433   6.3970   7.8507   9.7752  10.2618  11.9982  12.8062
    14.5773  17.6589  18.4572  18.6114  19.1251  19.8808  22.1576  24.1350
    24.5481  25.5160  26.0786  27.0245  29.0234  29.6510  29.7301  31.4504
    31.8291  33.4264  35.1462  35.2825  36.6209  36.9133  38.2740  38.3854
    39.4949  39.9487  41.2750  42.1780  42.2566  43.1264  43.8387  44.7325
    47.8963  48.1372

          k = 0.0000 0.2500 0.5000 (  1610 PWs)   bands (ev):

   -14.5482  -7.1866  -7.1764  -4.7745  -2.3157  -2.2069   0.2858   2.4956
     2.7371   4.9508   5.5602   7.7917   8.3619   9.9988  10.4971  14.0047
    15.3468  15.6923  18.6549  19.3973  20.4722  22.4565  23.1931  25.6268
    26.1629  27.0317  27.6541  28.5113  28.7587  28.8678  30.7789  31.0325
    32.3209  32.7661  33.2469  34.8584  35.8457  36.5402  37.1904  38.3351
    38.4733  40.0119  40.6429  41.3798  41.8623  42.7430  42.7577  44.3526
    46.3191  46.8585

          k = 0.0000 0.2000 0.4000 (  1613 PWs)   bands (ev):

   -15.1108  -6.2975  -6.2844  -3.4569  -2.3346  -2.2779   0.6074   1.5281
     1.7277   4.3388   4.6825   5.9856   6.7036   9.0627  12.2358  13.1186
    15.3384  16.9285  19.0101  19.7769  21.6066  24.9878  25.1228  26.4039
    26.9078  27.9237  28.2150  28.6499  29.6997  30.1261  30.4327  30.7085
    32.6964  33.1153  33.3863  34.0719  35.1078  35.7341  36.4679  38.1280
    38.4057  39.5932  39.7053  40.9788  41.3740  41.8116  41.8323  44.2634
    44.6152  46.6785

          k = 0.0000 0.1500 0.3000 (  1607 PWs)   bands (ev):

   -15.5491  -5.3059  -5.2894  -2.5235  -2.2420  -1.7821   0.6391   0.6848
     1.1534   3.6414   3.6650   4.4900   5.4480   7.6901  11.1263  14.5886
    16.7720  18.2461  19.4503  20.2514  22.3485  25.5917  25.7048  26.6914
    27.7303  28.4381  28.6386  29.6554  29.8336  30.5885  31.0231  31.4850
    32.7069  33.4583  33.9059  34.8770  34.8988  36.0448  36.5919  37.8578
    38.5934  39.1252  39.1387  40.5851  40.9015  41.2053  41.3705  42.9282
    43.0874  44.6808

          k =-0.0000 0.1000 0.2000 (  1600 PWs)   bands (ev):

   -15.8626  -4.2268  -4.2077  -2.3164  -2.1151  -0.4581  -0.1836   0.0066
     1.4777   2.4743   2.5990   3.8370   4.5817   6.3013   9.5281  17.0073
    18.2772  19.6112  19.9391  20.8132  22.9527  24.6878  24.7076  25.8422
    26.3800  27.9320  30.2143  30.7107  31.2361  31.6141  32.0259  33.1175
    33.1509  33.7292  34.9783  35.6675  36.4499  36.9629  37.0558  37.8461
    38.4572  39.0118  39.0147  40.1744  40.2382  40.7255  40.8536  41.9692
    42.1264  42.7355

          k =-0.0000 0.0500 0.1000 (  1623 PWs)   bands (ev):

   -16.0508  -3.0935  -3.0766  -2.1565  -1.9452  -1.0052  -0.9765   0.7736
     1.3592   1.6512   2.4712   3.5950   3.9129   4.8062   8.5177  19.3467
    19.7494  20.3875  20.9569  21.4605  23.4032  23.9046  23.9107  24.5207
    24.6091  25.5021  30.0008  32.8459  32.9057  33.4928  33.5482  33.9705
    34.2859  34.6730  36.2396  36.5897  37.1116  37.5683  37.6448  38.3242
    38.3624  38.8755  38.9704  39.5299  39.6417  40.2247  40.5472  40.8409
    41.3004  41.5029

          k = 0.0000 0.0000 0.0000 (  1639 PWs)   bands (ev):

   -16.1135  -2.0799  -2.0799  -2.0799  -1.8539  -1.8539  -1.8539   0.6249
     0.8998   2.7700   2.7700   3.5222   3.5222   3.5222   8.1813  20.5923
    20.5923  20.5923  22.0263  22.0263  23.5229  23.5229  23.5229  23.7261
    23.7261  23.7261  29.7804  33.6966  33.6966  33.6966  34.6959  34.6959
    35.0975  35.0975  37.0337  37.0337  37.0337  38.7781  38.7781  38.7781
    38.8502  38.8502  38.8502  39.0670  39.0670  39.0670  39.1658  39.1658
    39.1658  41.9590

     Writing output data file Si.save

     init_run     :      0.21s CPU      0.22s WALL (       1 calls)
     electrons    :    163.39s CPU    166.42s WALL (       1 calls)

     Called by init_run:
     wfcinit      :      0.00s CPU      0.00s WALL (       1 calls)
     potinit      :      0.05s CPU      0.05s WALL (       1 calls)

     Called by electrons:
     c_bands      :    163.39s CPU    166.41s WALL (       1 calls)
     v_of_rho     :      0.04s CPU      0.04s WALL (       1 calls)

     Called by c_bands:
     init_us_2    :      0.07s CPU      0.09s WALL (      51 calls)
     cegterg      :    155.12s CPU    157.95s WALL (      97 calls)

     Called by *egterg:
     h_psi        :     84.66s CPU     86.20s WALL (    1541 calls)
     g_psi        :      0.23s CPU      0.23s WALL (    1393 calls)
     cdiaghg      :     18.73s CPU     18.98s WALL (    1444 calls)

     Called by h_psi:
     add_vuspsi   :      2.32s CPU      2.36s WALL (    1541 calls)

     General routines
     calbec       :      2.53s CPU      2.56s WALL (    1541 calls)
     fft          :      0.02s CPU      0.02s WALL (      10 calls)
     fftw         :     75.68s CPU     77.11s WALL (   71588 calls)
     davcio       :      0.01s CPU      0.02s WALL (      51 calls)

     Parallel routines
     fft_scatter  :      1.79s CPU      1.81s WALL (   71598 calls)

     PWSCF        :  2m45.15s CPU     2m48.52s WALL


   This run was terminated on:  23:14:43  13Feb2023            

=------------------------------------------------------------------------------=
   JOB DONE.
=------------------------------------------------------------------------------=
