
     Program PWSCF v.5.1 starts on 13Feb2023 at 23: 7: 2 

     This program is part of the open-source Quantum ESPRESSO suite
     for quantum simulation of materials; please cite
         "P. Giannozzi et al., J. Phys.:Condens. Matter 21 395502 (2009);
          URL http://www.quantum-espresso.org", 
     in publications or presentations arising from this work. More details at
     http://www.quantum-espresso.org/quote

     Parallel version (MPI), running on     1 processors
     Waiting for input...
     Reading input from standard input

     Current dimensions of program PWSCF are:
     Max number of different atomic species (ntypx) = 10
     Max number of k-points (npk) =  40000
     Max angular momentum in pseudopotentials (lmaxx) =  3

     Atomic positions and unit cell read from directory:
     ./out/Si.save/

               file Si.pbe-mt_fhi.UPF: wavefunction(s)  4f renormalized

     Subspace diagonalization in iterative solution of the eigenvalue problem:
     a serial algorithm will be used


     G-vector sticks info
     --------------------
     sticks:   dense  smooth     PW     G-vecs:    dense   smooth      PW
     Sum         733     733    223                12939    12939    2229



     bravais-lattice index     =            2
     lattice parameter (alat)  =      10.2623  a.u.
     unit-cell volume          =     270.1967 (a.u.)^3
     number of atoms/cell      =            2
     number of atomic types    =            1
     number of electrons       =        98.00
     number of Kohn-Sham states=           50
     kinetic-energy cutoff     =      50.0000  Ry
     charge density cutoff     =     200.0000  Ry
     Exchange-correlation      = PBE ( 1  4  3  4 0)

     celldm(1)=  10.262347  celldm(2)=   0.000000  celldm(3)=   0.000000
     celldm(4)=   0.000000  celldm(5)=   0.000000  celldm(6)=   0.000000

     crystal axes: (cart. coord. in units of alat)
               a(1) = (  -0.500000   0.000000   0.500000 )  
               a(2) = (   0.000000   0.500000   0.500000 )  
               a(3) = (  -0.500000   0.500000   0.000000 )  

     reciprocal axes: (cart. coord. in units 2 pi/alat)
               b(1) = ( -1.000000 -1.000000  1.000000 )  
               b(2) = (  1.000000  1.000000  1.000000 )  
               b(3) = ( -1.000000  1.000000 -1.000000 )  


     PseudoPot. # 1 for Si read from file:
     /home/acedemo/psudo/Si.pbe-mt_fhi.UPF
     MD5 check sum: 259057c2adf9952f9ced37ae3d9e311d
     Pseudo is Norm-conserving, Zval =  4.0
     Generated using FHI98PP, converted with fhi2upf.x v.5.0.2
     Using radial grid of  495 points,  3 beta functions with: 
                l(1) =   0
                l(2) =   1
                l(3) =   3

     atomic species   valence    mass     pseudopotential
        Si             4.00    28.08550     Si( 1.00)

     48 Sym. Ops., with inversion, found (24 have fractional translation)



   Cartesian axes

     site n.     atom                  positions (alat units)
         1           Si  tau(   1) = (   0.0000000   0.0000000   0.0000000  )
         2           Si  tau(   2) = (   0.2500000   0.2500000   0.2500000  )

     number of k points=    72 (tetrahedron method)
                       cart. coord. in units 2pi/alat
        k(    1) = (   0.0000000   0.0000000   0.0000000), wk =   0.0011574
        k(    2) = (  -0.0833333   0.0833333  -0.0833333), wk =   0.0092593
        k(    3) = (  -0.1666667   0.1666667  -0.1666667), wk =   0.0092593
        k(    4) = (  -0.2500000   0.2500000  -0.2500000), wk =   0.0092593
        k(    5) = (  -0.3333333   0.3333333  -0.3333333), wk =   0.0092593
        k(    6) = (  -0.4166667   0.4166667  -0.4166667), wk =   0.0092593
        k(    7) = (   0.5000000  -0.5000000   0.5000000), wk =   0.0046296
        k(    8) = (   0.0000000   0.1666667   0.0000000), wk =   0.0069444
        k(    9) = (  -0.0833333   0.2500000  -0.0833333), wk =   0.0277778
        k(   10) = (  -0.1666667   0.3333333  -0.1666667), wk =   0.0277778
        k(   11) = (  -0.2500000   0.4166667  -0.2500000), wk =   0.0277778
        k(   12) = (  -0.3333333   0.5000000  -0.3333333), wk =   0.0277778
        k(   13) = (   0.5833333  -0.4166667   0.5833333), wk =   0.0277778
        k(   14) = (   0.5000000  -0.3333333   0.5000000), wk =   0.0277778
        k(   15) = (   0.4166667  -0.2500000   0.4166667), wk =   0.0277778
        k(   16) = (   0.3333333  -0.1666667   0.3333333), wk =   0.0277778
        k(   17) = (   0.2500000  -0.0833333   0.2500000), wk =   0.0277778
        k(   18) = (   0.1666667  -0.0000000   0.1666667), wk =   0.0138889
        k(   19) = (   0.0000000   0.3333333   0.0000000), wk =   0.0069444
        k(   20) = (  -0.0833333   0.4166667  -0.0833333), wk =   0.0277778
        k(   21) = (  -0.1666667   0.5000000  -0.1666667), wk =   0.0277778
        k(   22) = (  -0.2500000   0.5833333  -0.2500000), wk =   0.0277778
        k(   23) = (   0.6666667  -0.3333333   0.6666667), wk =   0.0277778
        k(   24) = (   0.5833333  -0.2500000   0.5833333), wk =   0.0277778
        k(   25) = (   0.5000000  -0.1666667   0.5000000), wk =   0.0277778
        k(   26) = (   0.4166667  -0.0833333   0.4166667), wk =   0.0277778
        k(   27) = (   0.3333333   0.0000000   0.3333333), wk =   0.0138889
        k(   28) = (   0.0000000   0.5000000   0.0000000), wk =   0.0069444
        k(   29) = (  -0.0833333   0.5833333  -0.0833333), wk =   0.0277778
        k(   30) = (  -0.1666667   0.6666667  -0.1666667), wk =   0.0277778
        k(   31) = (   0.7500000  -0.2500000   0.7500000), wk =   0.0277778
        k(   32) = (   0.6666667  -0.1666667   0.6666667), wk =   0.0277778
        k(   33) = (   0.5833333  -0.0833333   0.5833333), wk =   0.0277778
        k(   34) = (   0.5000000   0.0000000   0.5000000), wk =   0.0138889
        k(   35) = (   0.0000000   0.6666667   0.0000000), wk =   0.0069444
        k(   36) = (  -0.0833333   0.7500000  -0.0833333), wk =   0.0277778
        k(   37) = (   0.8333333  -0.1666667   0.8333333), wk =   0.0277778
        k(   38) = (   0.7500000  -0.0833333   0.7500000), wk =   0.0277778
        k(   39) = (   0.6666667   0.0000000   0.6666667), wk =   0.0138889
        k(   40) = (   0.0000000   0.8333333   0.0000000), wk =   0.0069444
        k(   41) = (   0.9166667  -0.0833333   0.9166667), wk =   0.0277778
        k(   42) = (   0.8333333   0.0000000   0.8333333), wk =   0.0138889
        k(   43) = (   0.0000000  -1.0000000   0.0000000), wk =   0.0034722
        k(   44) = (  -0.1666667   0.3333333   0.0000000), wk =   0.0277778
        k(   45) = (  -0.2500000   0.4166667  -0.0833333), wk =   0.0555556
        k(   46) = (  -0.3333333   0.5000000  -0.1666667), wk =   0.0555556
        k(   47) = (   0.5833333  -0.4166667   0.7500000), wk =   0.0555556
        k(   48) = (   0.5000000  -0.3333333   0.6666667), wk =   0.0277778
        k(   49) = (  -0.1666667   0.5000000   0.0000000), wk =   0.0277778
        k(   50) = (  -0.2500000   0.5833333  -0.0833333), wk =   0.0555556
        k(   51) = (   0.6666667  -0.3333333   0.8333333), wk =   0.0555556
        k(   52) = (   0.5833333  -0.2500000   0.7500000), wk =   0.0555556
        k(   53) = (   0.5000000  -0.1666667   0.6666667), wk =   0.0555556
        k(   54) = (   0.4166667  -0.0833333   0.5833333), wk =   0.0555556
        k(   55) = (   0.3333333   0.0000000   0.5000000), wk =   0.0277778
        k(   56) = (  -0.1666667   0.6666667  -0.0000000), wk =   0.0277778
        k(   57) = (   0.7500000  -0.2500000   0.9166667), wk =   0.0555556
        k(   58) = (   0.6666667  -0.1666667   0.8333333), wk =   0.0555556
        k(   59) = (   0.5833333  -0.0833333   0.7500000), wk =   0.0555556
        k(   60) = (   0.5000000   0.0000000   0.6666667), wk =   0.0277778
        k(   61) = (   0.8333333  -0.1666667   1.0000000), wk =   0.0277778
        k(   62) = (   0.7500000  -0.0833333   0.9166667), wk =   0.0555556
        k(   63) = (   0.6666667   0.0000000   0.8333333), wk =   0.0277778
        k(   64) = (  -0.1666667  -1.0000000   0.0000000), wk =   0.0138889
        k(   65) = (   0.6666667  -0.3333333   1.0000000), wk =   0.0277778
        k(   66) = (   0.5833333  -0.2500000   0.9166667), wk =   0.0555556
        k(   67) = (   0.5000000  -0.1666667   0.8333333), wk =   0.0277778
        k(   68) = (   0.6666667  -0.1666667   1.0000000), wk =   0.0277778
        k(   69) = (   0.5833333  -0.0833333   0.9166667), wk =   0.0555556
        k(   70) = (   0.5000000   0.0000000   0.8333333), wk =   0.0277778
        k(   71) = (  -0.3333333  -1.0000000   0.0000000), wk =   0.0138889
        k(   72) = (  -0.5000000  -1.0000000   0.0000000), wk =   0.0069444

     Dense  grid:    12939 G-vectors     FFT dimensions: (  36,  36,  36)

     Largest allocated arrays     est. size (Mb)     dimensions
        Kohn-Sham Wavefunctions         1.25 Mb     (    1639,   50)
        NL pseudopotentials             0.55 Mb     (    1639,   22)
        Each V/rho on FFT grid          0.71 Mb     (   46656)
        Each G-vector array             0.10 Mb     (   12939)
        G-vector shells                 0.00 Mb     (     180)
     Largest temporary arrays     est. size (Mb)     dimensions
        Auxiliary wavefunctions         5.00 Mb     (    1639,  200)
        Each subspace H/S matrix        0.61 Mb     (     200,  200)
        Each <psi_i|beta_j> matrix      0.02 Mb     (      22,   50)

     The potential is recalculated from file :
     ./out/Si.save/charge-density.dat

     Starting wfc are   32 randomized atomic wfcs +   18 random wfc

     Band Structure Calculation
     Davidson diagonalization with overlap

     ethr =  1.63E-12,  avg # of iterations = 25.9

     Warning: ef = 47.878022 is above the highest band at k-point   1
              e  =  41.959002

     Warning: ef = 47.878022 is above the highest band at k-point   2
              e  =  41.924607

     Warning: ef = 47.878022 is above the highest band at k-point   3
              e  =  43.092158

     Warning: ef = 47.878022 is above the highest band at k-point   4
              e  =  45.718502

     Warning: ef = 47.878022 is above the highest band at k-point   7
              e  =  47.534521

     Warning: ef = 47.878022 is above the highest band at k-point   8
              e  =  41.091295

     Warning: ef = 47.878022 is above the highest band at k-point   9
              e  =  43.256989

     Warning: ef = 47.878022 is above the highest band at k-point  10
              e  =  45.163271

     Warning: ef = 47.878022 is above the highest band at k-point  11
              e  =  46.889502

     Warning: ef = 47.878022 is above the highest band at k-point  16
              e  =  46.508868

     Warning: ef = 47.878022 is above the highest band at k-point  17
              e  =  44.368819

     Warning: ef = 47.878022 is above the highest band at k-point  18
              e  =  42.931970

     Warning: ef = 47.878022 is above the highest band at k-point  19
              e  =  42.710120

     Warning: ef = 47.878022 is above the highest band at k-point  20
              e  =  45.103353

     Warning: ef = 47.878022 is above the highest band at k-point  21
              e  =  46.399258

     Warning: ef = 47.878022 is above the highest band at k-point  26
              e  =  47.188304

     Warning: ef = 47.878022 is above the highest band at k-point  27
              e  =  45.666485

     Warning: ef = 47.878022 is above the highest band at k-point  28
              e  =  44.830076

     Warning: ef = 47.878022 is above the highest band at k-point  29
              e  =  47.365954

     Warning: ef = 47.878022 is above the highest band at k-point  35
              e  =  47.357228

     Warning: ef = 47.878022 is above the highest band at k-point  38
              e  =  47.582061

     Warning: ef = 47.878022 is above the highest band at k-point  39
              e  =  47.447219

     Warning: ef = 47.878022 is above the highest band at k-point  44
              e  =  45.356462

     Warning: ef = 47.878022 is above the highest band at k-point  45
              e  =  46.763764

     Warning: ef = 47.878022 is above the highest band at k-point  46
              e  =  47.555569

     Warning: ef = 47.878022 is above the highest band at k-point  49
              e  =  46.207090

     Warning: ef = 47.878022 is above the highest band at k-point  51
              e  =  47.857308

     Warning: ef = 47.878022 is above the highest band at k-point  55
              e  =  47.123601

     Warning: ef = 47.878022 is above the highest band at k-point  59
              e  =  47.755966

     Warning: ef = 47.878022 is above the highest band at k-point  63
              e  =  47.081521

     Warning: ef = 47.878022 is above the highest band at k-point  68
              e  =  47.872223

     total cpu time spent up to now is      264.1 secs

     End of band structure calculation

          k = 0.0000 0.0000 0.0000 (  1639 PWs)   bands (ev):

   -16.1135  -2.0799  -2.0799  -2.0799  -1.8539  -1.8539  -1.8539   0.6249
     0.8998   2.7700   2.7700   3.5222   3.5222   3.5222   8.1813  20.5923
    20.5923  20.5923  22.0263  22.0263  23.5229  23.5229  23.5229  23.7261
    23.7261  23.7261  29.7804  33.6966  33.6966  33.6966  34.6959  34.6959
    35.0975  35.0975  37.0337  37.0337  37.0337  38.7781  38.7781  38.7781
    38.8502  38.8502  38.8502  39.0670  39.0670  39.0670  39.1658  39.1658
    39.1658  41.9590

          k =-0.0833 0.0833-0.0833 (  1612 PWs)   bands (ev):

   -16.0089  -3.8668  -2.6740  -2.6740  -1.1803  -1.0882  -1.0882   0.9657
     1.6239   1.6239   1.6995   3.5326   4.9025   4.9025   8.7022  19.0140
    19.0140  19.5335  21.5212  21.5212  23.6422  23.6422  23.8304  24.1237
    26.0069  26.0069  30.1035  32.4634  32.8739  32.8739  33.3128  33.3128
    33.9765  33.9765  36.2951  36.2951  36.6812  36.7591  38.0625  38.4220
    38.4220  38.8345  39.0893  39.0893  40.2516  40.4403  40.4403  41.7651
    41.9246  41.9246

          k =-0.1667 0.1667-0.1667 (  1591 PWs)   bands (ev):

   -15.6954  -5.8785  -3.1780  -3.1780  -1.3571  -0.3240  -0.3240   0.6774
     0.6774   1.0595   2.8766   4.8301   6.8060   6.8060   9.9920  16.2786
    16.2786  17.5549  21.7042  21.7042  23.8840  23.8840  24.1422  24.7896
    28.7551  28.7551  29.3378  30.1419  30.1419  31.7514  31.7514  32.0562
    32.5248  32.5248  33.4113  34.4620  35.7018  35.7018  37.1854  38.6389
    38.6389  38.6506  40.2265  40.2265  40.4167  41.7783  41.9557  41.9557
    43.0922  43.0922

          k =-0.2500 0.2500-0.2500 (  1618 PWs)   bands (ev):

   -15.1735  -7.7715  -3.4923  -3.4923  -1.5812  -0.9659  -0.9659   0.5369
     1.5365   1.5365   3.9613   7.4279   8.9288   8.9288  11.7047  13.6047
    13.6047  15.4194  22.0947  22.0947  24.2380  24.2380  24.5655  24.6588
    26.2200  26.2200  27.4058  29.8612  30.0813  30.0813  30.3235  30.3235
    32.4615  32.7749  33.6534  33.6534  35.3491  35.3491  36.5351  38.3955
    38.3955  38.9167  40.0771  41.1384  41.1384  42.7972  43.7243  43.7243
    45.7185  45.7185

          k =-0.3333 0.3333-0.3333 (  1616 PWs)   bands (ev):

   -14.4443  -9.4942  -3.6222  -3.6222  -1.7978  -1.7978  -1.6803  -0.1071
     3.0003   3.0003   5.2901  10.3492  11.0515  11.0515  11.3070  11.3070
    13.3585  13.6914  22.1929  22.1929  22.7742  23.1964  23.1964  24.8202
    25.0256  25.0256  25.3701  28.4919  28.6863  28.6863  29.0192  29.0192
    30.6900  32.3496  35.0444  35.0444  36.6803  37.1842  37.1842  38.0712
    38.0712  39.3372  40.3606  42.3190  42.3190  44.3415  45.8176  45.8176
    48.4246  48.4246

          k =-0.4167 0.4167-0.4167 (  1616 PWs)   bands (ev):

   -13.5098 -11.0288  -3.5969  -3.5969  -2.4159  -2.4159  -1.6442  -0.6351
     4.6869   4.6869   6.7069   8.7990   8.7990  11.2869  13.7044  13.7703
    13.7703  15.7915  19.5459  19.5459  20.2203  21.5732  23.3712  23.3712
    25.7177  25.7177  26.2327  27.5200  27.5200  27.8345  27.8345  28.8827
    29.1912  31.3992  34.9329  34.9329  36.8701  37.5195  37.5195  38.8617
    41.1545  41.1545  42.6377  43.6789  43.6789  46.0232  47.3217  47.3217
    48.5894  48.5894

          k = 0.5000-0.5000 0.5000 (  1622 PWs)   bands (ev):

   -12.4278 -12.3114  -3.5368  -3.5368  -2.6749  -2.6749  -1.5784  -0.8705
     6.2437   6.2437   7.0395   7.0395   7.5802  10.3191  15.9626  15.9626
    16.3316  17.0914  17.1819  17.1819  18.0277  19.5376  23.6349  23.6349
    26.5750  26.5750  26.6212  26.6212  26.8582  27.2339  27.2339  28.3536
    29.3096  30.8103  34.8954  34.8954  36.9379  37.4058  37.4058  38.6718
    43.4657  43.4657  44.4296  45.0690  45.0690  46.5839  46.5839  47.1919
    47.3139  47.5345

          k = 0.0000 0.1667 0.0000 (  1615 PWs)   bands (ev):

   -15.9741  -3.4271  -3.4271  -2.6577  -2.4824  -0.2678  -0.2678   0.0700
     1.7410   1.7784   2.9103   3.6839   3.6839   5.5037   8.9966  18.7555
    18.7555  19.5961  20.7238  20.9156  23.7269  23.7269  23.9956  25.7046
    25.7046  26.3733  30.1968  31.8405  31.8405  32.3557  32.8768  33.5237
    34.2553  34.6986  35.9166  35.9166  36.6425  37.0110  37.0110  38.2308
    38.2308  39.7808  39.9010  39.9595  40.3344  40.3616  40.3616  40.7948
    41.0913  41.0913

          k =-0.0833 0.2500-0.0833 (  1599 PWs)   bands (ev):

   -15.7302  -5.1444  -3.9934  -3.0606  -1.9383  -1.1143   0.0067   0.6293
     2.0133   2.1291   2.9703   4.2801   5.1968   6.8161  10.2391  16.2486
    16.8303  19.4362  19.4550  20.6680  23.3337  23.9358  25.6894  26.2036
    27.2842  29.0905  29.2864  30.1674  30.2386  31.1781  31.2461  32.1032
    33.2123  33.5133  34.3374  35.1387  35.3566  36.8318  37.3112  38.1742
    38.3883  38.6860  39.4382  39.6784  40.1669  41.0050  41.5658  41.9047
    42.7451  43.2570

          k =-0.1667 0.3333-0.1667 (  1610 PWs)   bands (ev):

   -15.2778  -7.0716  -4.3635  -3.4204  -2.3353  -0.6591  -0.1962   0.4508
     1.7237   2.2812   4.1015   6.5856   7.2338   8.6429  11.9610  13.5118
    14.4220  17.2888  19.8085  20.9386  23.2111  24.3114  25.7926  26.4915
    26.5715  28.0674  28.3159  28.3976  29.0000  30.6054  31.0826  31.2875
    32.0068  33.0199  33.5142  33.8381  34.6870  36.3664  36.8084  38.3351
    38.3679  39.1265  39.2787  40.0717  41.5434  41.8846  43.0135  44.2215
    44.5837  45.1633

          k =-0.2500 0.4167-0.2500 (  1606 PWs)   bands (ev):

   -14.6177  -8.8506  -4.5357  -3.6612  -3.1840  -0.4261  -0.3229   0.3515
     1.4134   3.6349   5.4172   9.4421   9.4866  10.7486  10.9473  12.0490
    13.9544  15.0863  20.3423  21.3445  21.7941  24.1901  24.6330  24.8561
    25.3244  26.2717  26.4127  27.5195  27.6840  29.2410  29.9923  30.2195
    32.3094  33.0950  33.5860  34.8523  35.3445  36.9048  37.2638  38.2969
    38.3123  39.7163  40.0681  41.6028  42.1090  43.8505  44.4943  46.1414
    46.7749  46.8895

          k =-0.3333 0.5000-0.3333 (  1616 PWs)   bands (ev):

   -13.7516 -10.4479  -4.5110  -4.1299  -3.4389  -1.1693  -0.2975   0.1268
     2.6250   5.2406   6.8400   8.5767   9.7847  11.9558  12.3228  13.0371
    13.2843  16.1495  18.8893  20.7672  21.4108  22.1128  22.1364  23.1966
    24.7432  25.0856  25.7526  26.7521  28.0987  28.6066  28.6528  30.2212
    31.8234  32.1275  32.7555  34.6561  36.3267  37.9869  38.3013  39.2715
    40.8048  41.0845  41.6116  41.9075  43.4095  44.9936  46.0772  46.9955
    48.3309  49.1121

          k = 0.5833-0.4167 0.5833 (  1615 PWs)   bands (ev):

   -12.6837 -11.8496  -4.6558  -4.2929  -3.2501  -1.7172  -0.3724  -0.0347
     4.3530   6.1793   7.2970   7.3290   8.6355  11.2182  14.5789  14.9887
    15.9774  16.5262  17.7943  18.7251  18.7964  20.4845  21.7729  22.9030
    24.2516  24.3707  26.5780  26.7114  27.4799  27.8197  28.7475  30.8998
    30.9391  31.7363  32.3063  34.1735  35.8635  38.4494  38.8861  41.1048
    41.6188  42.4997  43.0231  44.1881  44.8257  45.8493  46.4025  46.8512
    47.9451  48.8972

          k = 0.5000-0.3333 0.5000 (  1616 PWs)   bands (ev):

   -13.0613 -11.4052  -5.0111  -3.8920  -2.8436  -2.0508  -0.6672   0.3278
     4.3253   5.2410   6.7378   8.2747   9.2147  11.3833  13.1005  14.8261
    15.6813  17.0297  17.7339  18.5719  19.5361  21.5917  21.6074  22.7297
    24.4013  24.6925  26.3885  26.4365  27.7460  28.1371  28.6449  30.5737
    31.0940  32.1594  32.5815  33.8966  35.6054  38.7151  39.2339  40.3933
    41.1284  41.4269  42.5916  44.8893  44.9169  46.1076  46.3983  47.1464
    47.7597  48.1941

          k = 0.4167-0.2500 0.4167 (  1611 PWs)   bands (ev):

   -14.0631  -9.9365  -5.1730  -3.3430  -2.2508  -2.1360  -0.8002   0.8311
     2.5616   3.7810   6.7737   8.8039  10.6030  11.4386  11.4419  13.2338
    13.3368  14.9863  20.5242  20.7227  21.0478  22.1606  23.1426  24.0801
    25.0799  25.3876  25.9021  26.5962  28.0092  28.9948  29.0684  29.9334
    32.1606  32.9711  33.1598  33.8718  35.6392  37.4840  38.5996  39.1335
    39.3642  39.9427  41.1549  42.2405  44.5385  45.4427  45.7245  46.2651
    47.7521  48.5828

          k = 0.3333-0.1667 0.3333 (  1605 PWs)   bands (ev):

   -14.8607  -8.2765  -5.1371  -2.7675  -1.8630  -1.5132  -0.7309   1.0093
     1.1779   2.6380   5.3053   8.2124   8.5445  10.8397  11.2024  12.9067
    13.8807  15.3118  20.2546  21.0424  23.3434  23.7013  24.8599  25.0571
    26.4114  26.5871  27.1788  27.8656  27.8769  29.6613  30.2879  30.6227
    33.1716  33.1966  33.8194  33.9957  34.4445  35.5660  36.3321  37.5882
    39.1419  39.6513  40.5571  41.6254  43.0568  43.3869  43.8684  44.7503
    46.0618  46.5089

          k = 0.2500-0.0833 0.2500 (  1600 PWs)   bands (ev):

   -15.4517  -6.4409  -4.9029  -2.3008  -1.2276  -0.8448  -0.3062  -0.1944
     0.4762   2.7915   3.9575   5.6112   6.3458   8.6501  11.0530  13.7700
    16.4557  17.3910  19.7830  20.7354  23.4737  24.1164  26.2267  26.3915
    27.4945  27.9136  28.8987  28.9568  29.8885  30.0956  31.2894  32.2070
    32.4002  32.8112  33.1678  33.8267  34.8251  35.7777  36.4471  37.3559
    38.3411  39.3383  40.5160  41.0634  41.5061  41.6982  43.0258  43.4764
    43.5673  44.3688

          k = 0.1667-0.0000 0.1667 (  1592 PWs)   bands (ev):

   -15.8347  -4.4843  -4.4635  -1.9172  -1.5837  -0.5971  -0.4898   0.2772
     0.5314   2.6854   2.7363   3.8936   4.8655   6.6645   9.5446  16.4699
    18.7341  19.0426  19.9051  20.8585  23.3736  23.8295  25.5022  26.0950
    26.1026  28.1349  30.2596  30.9252  31.0052  31.2537  31.9413  32.8986
    33.1493  33.2597  34.7222  35.5424  35.9901  36.9885  37.0846  37.4418
    38.3057  39.1274  39.3385  40.2424  40.6021  40.6510  40.9404  42.8263
    42.9155  42.9320

          k = 0.0000 0.3333 0.0000 (  1607 PWs)   bands (ev):

   -15.5561  -4.6245  -4.6245  -3.6307  -3.4992  -2.5064   1.6056   1.6056
     3.2679   3.3313   3.5393   4.2091   4.2091   6.8707  11.5502  16.1670
    16.1670  16.7317  19.0083  21.1173  24.0878  24.0878  24.1368  27.7391
    27.7391  28.6612  29.3248  29.3248  29.4278  29.7437  30.9719  33.4035
    33.7555  34.1427  34.4227  34.4227  35.7510  35.8831  35.8831  37.1164
    37.1164  38.7686  38.9569  41.1458  41.1458  41.4498  41.6090  42.5544
    42.5544  42.7101

          k =-0.0833 0.4167-0.0833 (  1616 PWs)   bands (ev):

   -15.1734  -6.2019  -5.0593  -4.0146  -3.7118  -2.7964   1.9263   2.0119
     3.2110   3.2435   4.6965   5.8108   5.9293   7.9398  13.3043  13.6071
    14.3645  16.8163  18.5506  20.1561  23.0220  24.4010  25.2210  25.9631
    25.9940  27.2323  28.9926  29.5979  29.7588  30.7037  30.8098  31.9168
    33.1134  33.2696  33.6387  34.4997  34.7754  35.5612  36.7850  37.5031
    37.6061  38.5152  40.0671  40.2003  40.6500  41.0490  42.5144  43.6595
    44.8689  45.1034

          k =-0.1667 0.5000-0.1667 (  1611 PWs)   bands (ev):

   -14.5829  -8.0120  -5.2950  -4.8117  -4.1559  -1.5052   1.1854   1.8665
     2.5325   4.4432   6.0304   7.9625   8.6915   9.6841  10.9793  12.1548
    15.3076  17.3318  17.7142  19.0875  21.2292  23.7692  24.1663  24.9805
    25.4953  26.1588  27.4785  27.9732  29.0625  30.3142  30.5872  30.7896
    31.5370  33.3601  33.3751  34.7361  36.5057  36.8946  37.4316  38.1138
    38.8160  39.5733  39.6152  40.5584  41.7086  42.1159  42.8325  44.9442
    46.1487  46.3993

          k =-0.2500 0.5833-0.2500 (  1610 PWs)   bands (ev):

   -13.7860  -9.6656  -5.6346  -5.3309  -4.1985  -0.0762   0.3847   1.8550
     1.9909   5.9685   7.4129   8.5502   9.9845  10.3573  11.7543  11.7961
    15.6252  17.5038  17.9966  18.0013  19.9809  22.4394  22.6765  23.5334
    24.1876  24.9236  25.7302  26.2499  28.1368  29.2879  30.2641  31.0951
    31.9971  32.7055  33.8857  36.1482  36.2160  36.3611  39.1463  39.3138
    40.1558  40.9173  40.9763  41.8546  42.1345  43.7785  44.2678  45.8113
    46.4118  48.3293

          k = 0.6667-0.3333 0.6667 (  1607 PWs)   bands (ev):

   -12.7851 -11.1315  -6.2695  -5.1676  -4.0359  -0.2378   0.7582   2.0495
     2.2937   6.1515   7.4280   7.8949   9.5157  12.9370  13.4206  13.7987
    15.1562  15.5824  18.6443  19.1086  20.1026  20.5638  21.1348  21.6259
    22.1494  22.7748  26.3529  26.5276  27.6886  28.0616  29.6360  31.7603
    32.1274  33.0703  33.3885  35.2341  35.3996  38.5852  39.9096  40.2552
    40.7238  41.5334  42.1979  43.5898  44.4548  45.4932  46.3069  46.5326
    47.9392  48.1990

          k = 0.5833-0.2500 0.5833 (  1602 PWs)   bands (ev):

   -12.4081 -11.5749  -6.7062  -4.8066  -3.6754  -0.6632   0.5908   2.3201
     3.8810   4.1611   5.8627   9.8109  10.3919  11.9993  12.6852  15.6436
    16.0705  16.6898  18.0938  18.4311  19.1529  19.3052  21.1717  21.3228
    21.9630  22.9932  26.8118  26.8537  27.2636  27.6787  29.7623  31.5078
    32.3084  32.8309  33.7819  34.8664  34.8744  37.5567  40.3800  41.2648
    41.4801  42.3812  43.7532  43.8289  44.3870  45.4954  46.1241  46.1289
    49.0890  49.3116

          k = 0.5000-0.1667 0.5000 (  1610 PWs)   bands (ev):

   -13.4749 -10.1750  -6.9421  -4.2519  -3.1218  -0.8850   0.4073   2.3235
     2.4710   4.0741   6.3835   8.9284  10.2352  11.9666  12.6630  13.8033
    15.3541  16.7795  18.3390  18.8684  18.9459  20.8159  21.8739  22.2300
    23.3862  24.9398  26.0022  26.8742  27.9640  28.8145  30.3355  31.0020
    32.2208  32.2976  33.4839  35.2284  35.4639  36.5019  37.9288  40.0583
    41.0761  42.1569  43.3189  44.5559  44.5950  44.6753  45.3924  47.0607
    47.7791  47.8841

          k = 0.4167-0.0833 0.4167 (  1613 PWs)   bands (ev):

   -14.3402  -8.5808  -6.9761  -3.5145  -2.3843  -0.8976   0.3526   0.6923
     1.6700   4.0568   6.8189   8.3459   8.7213   9.7869  12.9412  14.3092
    14.6640  15.5470  17.7118  19.0962  21.9835  22.4121  23.6189  24.0757
    25.1043  25.3352  26.3588  28.7749  28.9570  30.0187  30.5735  30.8107
    31.6871  32.2257  33.1829  34.2235  34.5531  36.5792  37.1194  37.5231
    40.5537  40.6570  42.7509  42.9874  43.0920  44.4438  45.5994  45.6961
    46.3665  47.1883

          k = 0.3333 0.0000 0.3333 (  1604 PWs)   bands (ev):

   -14.9997  -6.8147  -6.8022  -2.6421  -1.4870  -0.7731  -0.6075   0.3128
     0.5475   4.4094   5.0005   6.6546   7.3236  10.7029  11.1417  12.7228
    16.3641  17.0203  17.6116  19.3428  23.3817  24.2424  25.5185  25.5668
    26.0282  26.1874  29.0000  29.4053  29.7738  29.9310  30.1272  31.8288
    31.9154  32.5870  32.5940  32.6544  34.9055  35.2500  37.1043  37.2772
    39.1695  39.3327  40.7844  42.6121  42.6579  43.5944  43.9041  44.6902
    45.1362  45.6665

          k = 0.0000 0.5000 0.0000 (  1612 PWs)   bands (ev):

   -14.8606  -5.5600  -5.5600  -5.0637  -4.4258  -4.3863   3.4386   3.4386
     4.0327   5.1570   5.3090   5.3090   5.6387   7.9780  13.7318  13.7318
    14.0994  15.0398  17.0052  21.7667  22.8614  23.8800  23.8800  24.7668
    24.7668  24.9504  28.0687  29.8247  31.7897  32.5692  32.5692  32.5923
    32.9788  32.9788  34.3231  34.8492  34.9690  34.9690  35.2609  35.7851
    35.7851  37.0278  38.8166  42.7262  42.7262  43.3202  43.6137  43.8338
    44.8301  44.8301

          k =-0.0833 0.5833-0.0833 (  1617 PWs)   bands (ev):

   -14.3400  -7.0043  -6.1494  -5.8616  -4.7054  -3.5733   2.9883   3.7339
     4.6672   5.2395   6.7616   6.8704   7.9971   9.0738  11.2086  12.1018
    14.4009  16.6206  17.0046  20.3620  21.0969  22.0585  22.4008  23.8281
    25.1731  25.5398  27.9635  29.0871  29.9844  31.2529  31.3449  32.3403
    32.3428  33.5110  33.5276  34.9515  35.6392  35.9722  36.6845  37.0383
    37.5164  37.9922  39.9643  41.4786  42.3279  42.6367  42.9512  45.0148
    45.8367  47.3660

          k =-0.1667 0.6667-0.1667 (  1620 PWs)   bands (ev):

   -13.6128  -8.6884  -7.0559  -5.9629  -4.8037  -2.1273   2.1500   3.3739
     4.4092   6.7836   8.1225   8.6563   9.1380  10.1553  10.5965  11.2002
    15.0460  16.6378  17.6321  18.9732  19.3913  20.4145  21.1868  23.2964
    25.2929  25.7416  25.8608  26.8635  28.3510  30.0615  30.9676  31.6534
    31.6638  32.9102  34.1686  36.1508  36.9372  37.0187  38.3017  39.0240
    39.5728  39.7935  40.6460  41.3438  41.6044  43.0702  43.1236  45.4702
    48.0460  49.0512

          k = 0.7500-0.2500 0.7500 (  1617 PWs)   bands (ev):

   -12.6808 -10.2110  -7.7652  -5.8639  -4.7032  -0.4983   1.4655   2.8931
     4.4194   6.2805   7.6573   8.6561  10.2744  11.5419  12.5507  14.1084
    14.6146  15.8007  16.5088  18.4143  19.0512  19.7315  21.1344  21.8224
    23.6789  23.9232  24.8612  26.6333  27.2355  28.8226  29.8306  31.0315
    32.3218  33.9660  34.8574  36.6438  37.9396  37.9683  38.3916  39.8046
    39.8533  40.5469  42.1343  43.1233  43.9168  44.0701  45.7845  47.2340
    47.3520  47.9150

          k = 0.6667-0.1667 0.6667 (  1607 PWs)   bands (ev):

   -11.5991 -11.4905  -8.2738  -5.5651  -4.4043   0.9712   1.0953   2.6996
     4.1961   4.3878   6.1527  10.5434  11.1927  11.9516  14.2271  14.6093
    15.3958  16.3236  17.2642  17.3751  18.2866  19.2829  19.7678  20.8400
    21.7591  24.0606  24.6377  27.3259  27.3687  27.9244  29.3651  30.5763
    31.9457  34.1260  35.3400  35.9497  37.8654  38.1739  40.1264  40.3495
    41.6381  42.3392  42.4486  43.8729  44.5185  45.1671  45.1803  47.2226
    48.0352  48.0813

          k = 0.5833-0.0833 0.5833 (  1611 PWs)   bands (ev):

   -12.6813 -10.2087  -8.5797  -5.0683  -3.9102   0.6755   1.6877   2.2870
     3.0409   4.2640   5.7646   8.7534  12.4479  12.6010  13.9904  14.4471
    15.9635  16.8536  16.9530  18.0190  18.6718  19.2872  19.4136  20.0866
    22.0780  24.8934  25.6207  26.6479  27.9662  28.7965  29.7784  30.3218
    31.7561  32.9084  34.9875  35.2359  38.3560  38.4596  38.5643  40.9217
    42.2738  42.3729  42.8733  43.6137  43.7974  44.5608  46.0256  47.0550
    47.2104  48.4784

          k = 0.5000 0.0000 0.5000 (  1604 PWs)   bands (ev):

   -13.6131  -8.6857  -8.6784  -4.3780  -3.2292   0.5775   0.5861   1.5315
     1.9181   5.6668   6.3567   6.7313  10.9040  11.3645  14.3515  15.2882
    15.3223  15.7607  16.7390  17.6194  20.2139  20.5926  20.9052  21.8169
    24.7668  25.6014  25.8764  25.9155  29.7878  29.7978  30.2240  30.4815
    31.5978  32.6515  33.5787  34.6846  34.7998  38.5643  38.9039  39.4085
    40.3360  40.6843  44.2122  44.2381  44.5265  45.1635  45.3951  45.4808
    46.4093  48.3915

          k = 0.0000 0.6667 0.0000 (  1624 PWs)   bands (ev):

   -13.8895  -7.3211  -6.2296  -6.2296  -5.0830  -5.0458   4.9004   4.9004
     5.0144   7.0570   7.2903   7.2903   7.8909   9.4165  11.5464  11.5464
    11.7314  15.1509  18.9095  20.1011  20.1011  20.2256  21.3615  22.7602
    25.5642  25.5642  27.9690  28.5760  31.2149  31.2149  31.7348  31.9663
    33.7099  33.8982  34.2261  34.2261  34.4673  34.4673  35.4209  36.9265
    36.9265  38.9178  39.2449  41.1200  44.5779  44.5779  46.1000  46.4388
    47.2541  47.3572

          k =-0.0833 0.7500-0.0833 (  1618 PWs)   bands (ev):

   -13.2322  -8.3018  -7.5419  -6.3974  -5.2290  -4.0941   4.1124   5.0062
     6.9736   7.0189   8.5751   8.7151   9.2795   9.8748  10.3027  10.8690
    12.2490  14.8498  17.2836  18.3560  19.1874  20.4795  20.9108  22.1362
    26.0876  26.1253  26.3954  29.4951  29.6229  30.2297  30.3568  31.1695
    31.6605  32.4189  34.7533  34.8792  35.5376  36.2248  36.6147  37.8959
    38.1178  38.5624  41.8154  42.4038  44.6933  44.7069  45.3668  47.3191
    48.0517  49.3013

          k = 0.8333-0.1667 0.8333 (  1619 PWs)   bands (ev):

   -12.3700  -9.1228  -9.0554  -6.3644  -5.1944  -2.5082   3.3735   4.5749
     6.5931   6.6916   8.2291   9.1511  10.7966  10.9009  11.5926  13.0169
    13.3501  14.0708  16.0282  16.8683  17.8388  20.1853  20.5006  22.9541
    23.5930  26.3047  26.5013  26.9595  27.7237  29.5173  30.1546  30.6908
    31.2636  32.1960  34.9021  36.0047  36.4626  37.6289  38.5571  39.6502
    39.8151  40.2368  42.2938  43.1887  44.6719  45.8280  45.9969  47.7560
    47.9155  48.6931

          k = 0.7500-0.0833 0.7500 (  1620 PWs)   bands (ev):

   -11.3068 -10.4842  -9.6604  -6.1310  -4.9606  -0.7285   2.8149   4.1387
     4.4301   5.4626   7.7880  10.7453  11.1799  12.6419  13.1169  13.8116
    13.8441  15.7813  15.8203  16.6869  17.2775  18.8629  19.7497  21.1824
    23.4167  24.0960  25.7479  27.6438  27.6928  28.6502  29.4676  29.9974
    30.7045  31.8816  36.5177  37.2184  38.3373  39.1205  39.5832  40.1624
    41.9671  42.0449  42.4862  43.5435  43.7845  45.4749  45.8041  46.2815
    47.3752  47.5821

          k = 0.6667 0.0000 0.6667 (  1612 PWs)   bands (ev):

   -11.6852 -10.0402 -10.0341  -5.6981  -4.5300   1.1056   2.4356   2.4672
     3.7773   3.9268   7.6710   8.6234  12.8176  14.0759  14.1748  14.3749
    15.8884  15.9048  15.9714  16.2167  17.5895  18.3606  20.6884  20.7475
    20.9704  22.6748  26.1974  27.4386  28.4609  28.7988  29.3071  29.7804
    30.5199  31.5134  36.8140  37.7560  39.3763  40.1153  40.5396  40.6268
    40.7410  41.9716  43.0017  43.0470  43.5627  45.1333  45.5081  46.1275
    46.9591  47.4472

          k = 0.0000 0.8333 0.0000 (  1628 PWs)   bands (ev):

   -12.6453  -9.3541  -6.6318  -6.6318  -5.4697  -5.4511   6.2440   6.2440
     6.2761   8.7212   9.2020   9.2020   9.6360   9.8415  10.3053  10.3053
    11.3904  13.8466  16.5240  16.5240  17.4082  18.2002  22.7996  24.1005
    26.5477  26.6348  26.6348  29.0078  29.5510  29.5510  31.4870  31.5695
    32.0553  32.5812  33.8603  33.8603  34.1147  34.1147  34.6924  35.9009
    40.5211  40.5211  43.1919  44.2777  46.0456  46.0456  48.6860  49.3678
    49.5002  49.6278

          k = 0.9167-0.0833 0.9167 (  1622 PWs)   bands (ev):

   -11.8533 -10.2075  -7.8116  -6.6655  -5.4930  -4.3565   5.4782   6.3454
     7.0930   7.8040   8.5800   9.6918  10.2122  10.7201  11.2242  11.6636
    13.0187  13.7349  14.8049  14.9625  16.5381  17.5017  23.0994  24.5998
    25.2220  27.2848  27.3077  28.3507  28.7982  29.3008  29.8272  30.8501
    31.0397  31.7391  33.4919  33.7586  34.7140  35.8754  36.0558  37.1638
    41.6127  41.7714  44.9945  45.0100  46.5149  46.6800  48.0126  49.0675
    49.0737  49.6997

          k = 0.8333 0.0000 0.8333 (  1614 PWs)   bands (ev):

   -10.8593 -10.8583  -9.2295  -6.4984  -5.3257  -2.6362   4.8274   4.8926
     5.8589   6.0466  10.0216  10.4384  10.7969  11.2417  12.1377  13.1075
    13.1516  14.0889  14.4175  15.8460  16.7751  17.9876  21.4643  21.8425
    26.2343  26.3677  26.4380  27.6826  27.8668  28.5888  29.5972  29.7727
    30.8077  31.1138  34.8485  35.4404  36.0321  37.4104  39.2241  40.1903
    41.4809  41.7297  43.3874  44.4618  45.8684  46.0553  47.4740  47.7881
    48.4106  49.2268

          k = 0.0000-1.0000 0.0000 (  1604 PWs)   bands (ev):

   -11.1317 -11.1317  -6.7659  -6.7659  -5.5931  -5.5931   7.6020   7.6020
     7.8170   7.8170   7.8653   7.8653   9.9919   9.9919  12.5420  12.5420
    13.4174  13.4174  13.7417  13.7417  15.9962  15.9962  24.9742  24.9742
    27.3061  27.3061  27.6773  27.6773  28.2991  28.2991  31.3294  31.3294
    31.4130  31.4130  33.7308  33.7308  33.9820  33.9820  34.7519  34.7519
    42.8697  42.8697  45.9026  45.9026  47.5498  47.5498  47.7564  47.7564
    51.0879  51.0879

          k =-0.1667 0.3333 0.0000 (  1603 PWs)   bands (ev):

   -15.4169  -5.6471  -5.6317  -2.7000  -2.2652  -2.1192   0.7906   0.9268
     1.1953   3.9283   4.0090   4.9180   5.8156   8.1442  11.7561  13.7945
    16.2842  17.7997  19.2959  20.0830  22.1215  25.7811  26.0503  26.4975
    27.0031  28.3546  28.8639  29.2788  29.5434  30.3308  30.9057  31.0568
    32.7779  33.5471  33.6560  34.3340  34.7100  35.8283  36.5280  37.9388
    38.5239  39.2441  39.3126  40.7694  41.1905  41.2438  41.4539  43.3801
    43.5564  45.3565

          k =-0.2500 0.4167-0.0833 (  1607 PWs)   bands (ev):

   -14.8954  -7.5076  -5.9394  -3.5800  -2.5839  -1.1108  -0.0194   0.8636
     2.1160   3.5590   5.6213   6.9728   7.7978  10.0740  11.1983  13.6336
    14.3271  17.3685  17.8907  20.3547  21.6418  23.8593  25.1133  25.8186
    26.5551  27.6676  27.7892  28.0423  28.8751  29.6986  30.4019  30.9411
    32.2049  32.4854  33.7215  34.2753  35.6135  35.8139  36.5030  37.7758
    38.3919  39.9087  40.3932  41.2409  41.9956  42.9404  43.4316  44.2290
    45.0269  46.7638

          k =-0.3333 0.5000-0.1667 (  1604 PWs)   bands (ev):

   -14.1669  -9.2237  -6.0402  -4.4484  -2.7243  -1.0312   0.4753   0.8293
     2.3395   4.1006   7.2066   8.7631   9.1222  10.6397  12.0103  12.3129
    15.3229  15.7869  18.2891  19.9177  20.9297  22.3029  23.4916  23.8268
    24.7936  25.6336  26.6434  27.5126  27.7735  29.0463  29.9843  31.2556
    31.6908  32.5197  34.2973  34.9203  35.7274  36.8324  37.1704  38.2210
    38.9840  41.1806  41.8400  42.8463  43.4311  43.9143  44.8093  45.1087
    45.9718  47.5556

          k = 0.5833-0.4167 0.7500 (  1612 PWs)   bands (ev):

   -13.2333 -10.7553  -5.9406  -5.1400  -2.6954  -1.6103   0.9059   1.4241
     2.5412   5.4386   6.6732   8.7053   9.9822  11.4990  13.0967  14.0346
    14.6303  17.1527  17.9213  18.9469  20.2335  20.9290  21.7164  22.0417
    23.4335  24.4956  24.7963  26.3863  28.0748  29.2806  30.0165  31.1706
    31.5398  32.1735  33.4137  34.5251  36.7633  37.7710  38.2649  38.9908
    41.6958  42.4334  42.6179  43.6025  44.1795  44.7157  46.1285  46.6557
    47.7294  48.9337

          k = 0.5000-0.3333 0.6667 (  1602 PWs)   bands (ev):

   -12.1514 -12.0372  -5.6665  -5.6124  -2.6266  -1.8707   1.1160   1.2132
     3.9362   4.5208   7.4866   7.7487  10.2397  11.9739  13.7158  14.4385
    16.8252  17.1627  17.4854  17.6836  19.7659  20.1644  21.1231  21.5883
    22.3678  23.9368  25.1932  25.3878  28.5320  29.0259  30.5388  30.7661
    31.1637  32.5194  33.1907  33.9384  36.8192  37.5475  39.5317  40.0376
    42.0656  43.0170  43.8717  44.1181  44.3909  45.5848  45.7898  47.6553
    47.8464  48.3165

          k =-0.1667 0.5000 0.0000 (  1617 PWs)   bands (ev):

   -14.7217  -6.5745  -6.5639  -4.9283  -3.1875  -3.1304   1.5448   2.9544
     3.2954   4.8959   5.1819   6.9177   7.4421   9.1175  11.3183  13.8539
    15.1751  15.4131  18.3188  19.9393  21.3241  23.0184  23.7174  25.4464
    25.8756  26.7287  27.9467  29.1176  29.6731  30.1019  30.8191  31.7226
    32.6297  33.2575  33.3585  34.4891  35.6753  36.1655  36.4193  37.7938
    38.5086  39.5109  39.8650  40.0865  40.9119  42.6396  42.7328  43.9682
    45.7634  46.2071

          k =-0.2500 0.5833-0.0833 (  1611 PWs)   bands (ev):

   -14.0628  -8.3160  -6.7368  -5.8908  -3.3287  -1.7958   0.7088   3.0830
     3.8380   5.0223   7.0808   8.5767   8.9117  10.0116  11.0171  12.0994
    15.4577  17.2251  18.1106  18.5579  19.7189  20.9545  22.8420  24.2568
    24.6980  26.1774  26.6151  27.8736  28.3868  29.2943  30.5237  31.0741
    32.2458  33.3754  34.7195  34.8582  36.1074  36.8219  38.3234  39.0338
    39.4062  39.9467  40.4148  41.1722  41.7269  42.5061  43.4725  44.9759
    46.3167  48.1012

          k = 0.6667-0.3333 0.8333 (  1617 PWs)   bands (ev):

   -13.1983  -9.9039  -6.7033  -6.6618  -3.3036  -0.4760   0.2463   3.1081
     3.4456   5.9798   6.9601   8.9993   9.9112  10.7039  12.9981  13.2434
    15.7950  15.9849  16.8980  19.2801  19.4448  20.0140  21.9256  22.5830
    22.8166  24.1224  25.5576  26.4132  26.9346  29.0422  29.9171  31.8437
    32.5846  33.9962  35.1551  35.7939  36.4057  37.0284  38.7975  39.4249
    39.8595  41.0386  41.6530  42.5732  43.1031  44.9214  45.6086  46.4535
    47.5255  47.8573

          k = 0.5833-0.2500 0.7500 (  1607 PWs)   bands (ev):

   -12.1324 -11.3012  -7.2351  -6.4678  -3.0885  -0.6727   1.5192   3.0207
     3.2814   4.4134   7.6546   8.3515  11.3617  12.4139  13.3346  14.3373
    15.8148  16.2870  17.1315  17.9451  19.1467  19.9621  20.5544  21.6126
    21.9466  23.4995  24.5030  25.3503  26.5524  29.2894  29.5945  31.5834
    32.9654  34.7672  34.9111  35.3477  36.7865  37.8042  38.3880  39.2420
    41.1912  42.6743  43.4823  44.3847  44.7178  45.2172  46.3730  47.1884
    47.8974  48.5159

          k = 0.5000-0.1667 0.6667 (  1605 PWs)   bands (ev):

   -12.5095 -10.8574  -7.6070  -6.0320  -2.6950  -0.9816   1.9129   2.3401
     3.8702   4.0221   6.0318  10.0269  10.4948  12.1493  13.8415  15.1131
    15.2853  16.7678  17.0500  18.1422  19.0675  19.8824  20.2850  20.7480
    22.3489  23.8110  25.2862  25.5373  26.8012  29.2301  29.2957  31.8294
    32.8960  34.3312  34.7956  35.1387  35.9554  37.9910  38.8582  39.8892
    41.2764  42.5050  42.7917  44.4689  45.0239  45.6013  46.2808  47.2913
    47.7716  47.9359

          k = 0.4167-0.0833 0.5833 (  1610 PWs)   bands (ev):

   -13.5093  -9.3934  -7.7765  -5.3980  -2.1643  -1.0810   0.3904   2.1508
     3.4412   4.9251   6.3858   7.8850  10.4534  11.9783  12.5278  14.3662
    15.6119  16.1614  17.7296  18.1333  19.4765  20.1967  21.5882  23.0758
    23.1796  24.3067  26.3845  27.0424  27.7961  28.8621  29.6153  31.9378
    32.4675  33.6583  33.8743  34.9707  36.2390  36.5192  38.6067  39.7709
    40.3554  41.1902  42.3299  42.6941  44.3393  45.4502  46.0193  46.2645
    46.7318  48.4068

          k = 0.3333 0.0000 0.5000 (  1606 PWs)   bands (ev):

   -14.3055  -7.7478  -7.7385  -4.5713  -1.7052  -1.2203  -0.6293   2.0307
     2.2566   5.1297   5.9280   8.4807   8.9823   9.2899  12.1036  14.2103
    15.5941  15.8802  17.4000  19.0774  20.7785  21.9203  23.0208  24.2599
    25.0485  27.2048  27.2343  27.5270  28.3485  29.7191  30.1291  31.5678
    32.0466  32.7283  33.3787  33.8374  35.5315  36.6087  37.8302  38.5386
    38.8607  41.0283  41.7647  41.9187  42.7859  43.8710  44.6326  45.0172
    46.4342  47.1236

          k =-0.1667 0.6667-0.0000 (  1626 PWs)   bands (ev):

   -13.7511  -7.2445  -7.2360  -7.1869  -3.8223  -3.7819   2.4995   4.8055
     5.7357   6.3107   6.3909   9.0041   9.3355   9.5232  10.2451  11.6784
    13.2387  16.3308  18.7662  19.0027  19.2706  20.8505  21.6405  22.4271
    24.2074  26.4206  27.5197  29.0100  29.1666  29.8441  29.9008  31.4523
    32.3172  33.4271  35.1787  35.3928  35.9073  36.6477  37.1370  37.5094
    38.7222  39.4010  40.5263  40.8796  41.8595  43.4669  44.8693  45.0391
    47.8086  48.0909

          k = 0.7500-0.2500 0.9167 (  1621 PWs)   bands (ev):

   -12.9563  -8.8584  -8.0328  -7.2727  -3.8365  -2.2892   1.7577   4.8807
     5.6871   6.5693   7.6005   8.4622   9.8047  11.1603  12.0085  12.3497
    13.5625  15.5204  17.1048  17.6732  19.4289  20.6348  21.2814  21.8344
    23.8993  24.0320  25.8701  27.5616  28.0601  28.9321  29.5786  32.0796
    32.6262  33.6968  34.7715  35.8797  37.0330  37.6580  38.2486  38.9310
    39.5390  40.5256  41.3190  41.8424  43.2043  43.5213  46.0170  46.8183
    48.3851  48.7747

          k = 0.6667-0.1667 0.8333 (  1616 PWs)   bands (ev):

   -11.9581 -10.3133  -8.6776  -7.1041  -3.6748  -0.6097   1.1980   4.2164
     4.5383   5.9804   7.9389   9.1556  10.8845  12.1716  13.0661  14.1105
    14.3315  15.6832  16.3145  17.0212  18.7196  19.2848  20.5280  22.2370
    22.5181  23.5886  24.8115  25.7702  26.4859  28.3169  29.7663  32.1580
    33.4323  33.8626  35.1856  35.7690  37.7172  38.5495  39.5412  39.6484
    41.2652  41.8026  42.0540  42.7460  44.3857  45.1922  45.8722  47.1418
    47.6868  48.4236

          k = 0.5833-0.0833 0.7500 (  1614 PWs)   bands (ev):

   -11.5832 -10.7530  -9.1201  -6.7340  -3.3208   0.5060   1.4148   2.4137
     4.1925   5.3943   6.9127   9.7885  11.0102  13.3224  14.2213  14.6160
    15.3819  15.5637  16.7896  17.2335  18.4811  19.1556  19.5704  20.1959
    22.4022  23.2983  24.4848  25.9346  26.5181  28.2104  29.7646  31.8931
    32.5878  33.6163  35.6091  36.7368  38.1443  38.7661  40.5541  40.7673
    41.0327  42.3154  42.9647  43.2657  43.9443  44.7345  45.9815  46.1528
    47.4463  47.7560

          k = 0.5000 0.0000 0.6667 (  1621 PWs)   bands (ev):

   -12.6467  -9.3619  -9.3559  -6.1640  -2.7867   0.3219   0.5019   3.0050
     3.8829   4.5253   6.7999   7.7067  12.5259  12.9093  13.7067  14.5946
    15.8040  16.1582  16.2484  17.8837  18.5178  19.5864  19.8959  21.1794
    22.7537  23.7930  23.9446  26.5113  27.6800  28.6109  30.0029  30.9515
    32.9765  33.7718  34.4689  36.1040  37.9731  38.4668  39.8490  39.9697
    40.9513  41.5190  42.7533  42.7837  43.6201  45.6740  46.1348  47.2886
    48.2665  48.4221

          k = 0.8333-0.1667 1.0000 (  1617 PWs)   bands (ev):

   -12.5076  -9.2191  -7.6445  -7.6414  -4.2025  -4.1829   3.7100   6.2652
     6.8522   7.5790   8.3066   8.9310   9.7031  10.8835  11.1554  11.9271
    12.3977  14.4128  15.8332  16.0512  18.5900  19.1209  21.8433  23.2561
    24.7043  25.0651  27.8122  28.5340  28.6235  28.8785  30.1134  31.1137
    31.9486  32.1665  34.4915  35.1214  35.2146  35.5406  38.2521  38.2878
    39.1604  40.5265  43.3579  43.9931  44.0634  46.4414  47.0363  47.0498
    49.2492  49.6314

          k = 0.7500-0.0833 0.9167 (  1620 PWs)   bands (ev):

   -11.5791  -9.9367  -9.1271  -7.5416  -4.0945  -2.5418   3.0805   4.6402
     6.3024   7.6640   8.9411   9.5603  10.2841  11.3925  12.1903  12.9266
    13.6338  14.5077  14.9925  16.4268  17.5356  18.9329  20.7881  22.2547
    24.5003  25.2275  25.5501  27.0002  27.3241  28.6761  29.6993  31.4224
    32.0998  32.9247  34.3033  34.9928  36.3324  38.2837  39.5716  39.9133
    41.0847  41.3189  43.2037  43.6226  45.0982  45.8516  46.8984  47.0612
    48.2867  48.3880

          k = 0.6667 0.0000 0.8333 (  1620 PWs)   bands (ev):

   -10.5149 -10.4489 -10.3827  -7.2382  -3.8011  -0.7103   2.5885   2.6406
     5.8302   5.9717   8.8947   9.6181  11.1977  12.1684  12.8882  13.2438
    14.6290  15.6967  16.6549  16.8082  18.2891  18.4000  19.9023  20.2118
    22.2782  25.0659  25.2387  26.1695  26.5004  28.4435  29.2664  31.3178
    32.5762  32.7900  35.2575  36.7017  38.3763  39.8068  40.2509  41.1105
    41.1758  42.5012  43.0520  43.4206  43.8608  44.5187  45.8169  45.9918
    46.7402  47.0815

          k =-0.1667-1.0000 0.0000 (  1622 PWs)   bands (ev):

   -10.9951 -10.9951  -7.7778  -7.7778  -4.3237  -4.3237   5.1677   5.1677
     7.8272   7.8272   8.9829   8.9829  11.1030  11.1030  11.6863  11.6863
    13.5278  13.5278  14.8734  14.8734  16.7527  16.7527  23.2487  23.2487
    26.0557  26.0557  27.3166  27.3166  28.7928  28.7928  30.0612  30.0612
    31.7226  31.7226  33.9628  33.9628  35.1607  35.1607  38.1567  38.1567
    42.0463  42.0463  44.8972  44.8972  47.0975  47.0975  47.5848  47.5848
    49.4197  49.4197

          k = 0.6667-0.3333 1.0000 (  1610 PWs)   bands (ev):

   -13.3363  -8.4207  -8.4139  -6.7944  -1.9993  -1.8396  -0.0237   4.1817
     4.6886   5.9744   6.8012   6.9717  11.0272  11.5432  12.0545  13.1190
    13.9637  17.1496  18.1227  18.3017  18.9890  19.4512  21.7817  23.0940
    23.5321  24.4831  24.9724  25.9290  27.9319  29.9984  30.2370  31.7352
    31.8245  34.3227  35.3333  36.2577  37.0224  37.6611  38.4020  38.5092
    39.7844  39.8750  40.6637  42.9603  43.0315  44.1444  44.5973  46.1124
    48.1408  48.9805

          k = 0.5833-0.2500 0.9167 (  1611 PWs)   bands (ev):

   -12.4054  -9.9377  -8.3154  -7.5018  -1.9127  -0.9162   0.0519   3.6885
     4.9664   5.4151   6.8869   8.9952  10.3421  12.7505  13.8447  14.3972
    14.7515  15.4969  16.8115  16.9226  19.5465  20.4695  21.4480  21.6699
    22.1660  22.6656  24.2172  24.4572  26.5269  28.2325  30.9656  32.8815
    33.3223  35.0380  35.3943  36.4875  36.6011  37.8634  38.6108  39.5135
    40.1650  41.4401  42.5105  42.7546  44.8034  45.5106  46.4546  46.8208
    48.0931  48.6165

          k = 0.5000-0.1667 0.8333 (  1610 PWs)   bands (ev):

   -11.3232 -11.2179  -8.0281  -7.9914  -1.8592  -1.0353   1.3911   2.2182
     4.9366   5.3436   8.3021   8.5608  11.3075  11.8618  14.2856  14.4838
    15.2343  15.5764  17.5378  18.1451  18.3972  18.7403  20.1554  21.3615
    22.5161  23.1891  23.9796  24.7604  24.7947  27.3841  31.2805  33.8618
    34.2922  34.5392  35.2193  35.7460  36.7087  37.7735  38.8490  40.5345
    41.2106  42.5830  42.8700  43.5815  44.8057  45.2715  45.5060  46.9642
    48.0269  48.7345

          k = 0.6667-0.1667 1.0000 (  1618 PWs)   bands (ev):

   -12.0951  -8.8618  -8.8212  -8.7769  -2.2961  -2.2370   1.0979   4.1550
     6.4721   7.3564   8.1593   8.1866  10.0556  11.4998  13.4889  13.7262
    14.2344  14.4180  15.3630  17.8543  19.3075  20.2630  20.5841  22.0789
    22.7960  23.2070  24.3807  24.9642  26.4149  29.8772  30.4165  32.3401
    32.4297  34.5424  35.3974  37.0308  37.1039  37.7845  38.2304  39.7238
    39.8798  41.4880  42.5195  43.0884  44.6403  45.0407  45.7099  47.6505
    47.8285  47.8722

          k = 0.5833-0.0833 0.9167 (  1615 PWs)   bands (ev):

   -11.0332 -10.2105  -9.3913  -8.5840  -2.0640  -0.6010   0.6780   2.1371
     6.6624   7.5304   8.7431   9.2141  10.3288  11.1052  12.3123  13.0307
    15.6221  16.6793  17.4805  17.7413  19.0005  19.1546  19.7150  20.8611
    20.9916  23.0461  23.5264  24.5428  26.3510  28.0792  30.7115  32.5406
    33.6368  34.9164  35.9234  36.5529  38.0291  38.8615  39.3287  40.1499
    40.8176  41.7674  43.3031  43.7905  44.1815  44.5024  45.4396  46.0258
    47.7015  48.3727

          k = 0.5000 0.0000 0.8333 (  1612 PWs)   bands (ev):

   -11.4100  -9.7698  -9.7637  -8.1437  -1.7178  -0.1361   0.2729   1.8428
     6.2505   6.5464   8.1649   8.8218  10.5999  12.1428  13.0070  13.6265
    16.1040  16.2683  16.8740  18.3035  18.8841  19.0485  20.0867  21.0158
    21.3139  22.4680  23.6904  24.0026  25.6774  29.0838  29.7996  32.9192
    34.3959  35.2629  35.8049  35.9236  37.8383  39.1754  39.2765  40.3500
    40.8661  41.4592  42.7935  43.2851  44.4302  45.0531  45.5729  46.4914
    47.6010  48.1030

          k =-0.3333-1.0000 0.0000 (  1618 PWs)   bands (ev):

   -10.5862 -10.5862  -8.9576  -8.9576  -2.3878  -2.3878   2.5240   2.5240
     8.0759   8.0759   9.3464   9.3464  10.3846  10.3846  11.7061  11.7061
    15.3565  15.3565  17.1189  17.1189  18.1363  18.1363  20.6556  20.6556
    23.5880  23.5880  24.6108  24.6108  28.1397  28.1397  30.7965  30.7965
    33.2858  33.2858  36.2695  36.2695  37.1978  37.1978  40.0396  40.0396
    42.4419  42.4419  43.4287  43.4287  44.4561  44.4561  45.5303  45.5303
    48.9386  48.9386

          k =-0.5000-1.0000 0.0000 (  1628 PWs)   bands (ev):

    -9.9628  -9.9628  -9.8446  -9.8446  -0.6707  -0.6707   0.5669   0.5669
     8.2502   8.2502   9.6673   9.6673   9.7924   9.7924  11.4569  11.4569
    17.8505  17.8505  18.2252  18.2252  18.9693  18.9693  19.9506  19.9506
    20.3683  20.3683  23.3434  23.3434  28.2060  28.2060  30.5099  30.5099
    35.4032  35.4032  36.9480  36.9480  38.8410  38.8410  39.8389  39.8389
    40.8620  40.8620  41.9056  41.9056  45.1951  45.1951  46.1124  46.1124
    49.5921  49.5921

     the Fermi energy is    47.8780 ev

     Writing output data file Si.save

     init_run     :      0.21s CPU      0.21s WALL (       1 calls)
     electrons    :    254.96s CPU    263.44s WALL (       1 calls)

     Called by init_run:
     wfcinit      :      0.00s CPU      0.00s WALL (       1 calls)
     potinit      :      0.05s CPU      0.06s WALL (       1 calls)

     Called by electrons:
     c_bands      :    254.17s CPU    262.65s WALL (       1 calls)
     v_of_rho     :      0.04s CPU      0.05s WALL (       1 calls)

     Called by c_bands:
     init_us_2    :      0.09s CPU      0.12s WALL (      72 calls)
     cegterg      :    241.77s CPU    249.63s WALL (     132 calls)

     Called by *egterg:
     h_psi        :    131.04s CPU    135.50s WALL (    2068 calls)
     g_psi        :      0.36s CPU      0.36s WALL (    1864 calls)
     cdiaghg      :     28.61s CPU     29.34s WALL (    1936 calls)

     Called by h_psi:
     add_vuspsi   :      3.63s CPU      3.79s WALL (    2068 calls)

     General routines
     calbec       :      3.95s CPU      4.08s WALL (    2068 calls)
     fft          :      0.02s CPU      0.02s WALL (      10 calls)
     fftw         :    117.05s CPU    120.98s WALL (   99376 calls)
     davcio       :      0.00s CPU      0.03s WALL (      72 calls)

     Parallel routines
     fft_scatter  :      2.88s CPU      2.92s WALL (   99386 calls)

     PWSCF        :  4m17.39s CPU     4m25.95s WALL


   This run was terminated on:  23:11:28  13Feb2023            

=------------------------------------------------------------------------------=
   JOB DONE.
=------------------------------------------------------------------------------=
