
     Program PWSCF v.5.1 starts on 13Feb2023 at 23: 4: 9 

     This program is part of the open-source Quantum ESPRESSO suite
     for quantum simulation of materials; please cite
         "P. Giannozzi et al., J. Phys.:Condens. Matter 21 395502 (2009);
          URL http://www.quantum-espresso.org", 
     in publications or presentations arising from this work. More details at
     http://www.quantum-espresso.org/quote

     Parallel version (MPI), running on     1 processors
     Waiting for input...
     Reading input from standard input

     Current dimensions of program PWSCF are:
     Max number of different atomic species (ntypx) = 10
     Max number of k-points (npk) =  40000
     Max angular momentum in pseudopotentials (lmaxx) =  3
               file Si.pbe-mt_fhi.UPF: wavefunction(s)  4f renormalized

     Subspace diagonalization in iterative solution of the eigenvalue problem:
     a serial algorithm will be used


     G-vector sticks info
     --------------------
     sticks:   dense  smooth     PW     G-vecs:    dense   smooth      PW
     Sum         733     733    211                12939    12939    2109



     bravais-lattice index     =            2
     lattice parameter (alat)  =      10.2623  a.u.
     unit-cell volume          =     270.1967 (a.u.)^3
     number of atoms/cell      =            2
     number of atomic types    =            1
     number of electrons       =        98.00
     number of Kohn-Sham states=           50
     kinetic-energy cutoff     =      50.0000  Ry
     charge density cutoff     =     200.0000  Ry
     convergence threshold     =      1.6E-09
     mixing beta               =       0.3000
     number of iterations used =            8  plain     mixing
     Exchange-correlation      = PBE ( 1  4  3  4 0)

     celldm(1)=  10.262347  celldm(2)=   0.000000  celldm(3)=   0.000000
     celldm(4)=   0.000000  celldm(5)=   0.000000  celldm(6)=   0.000000

     crystal axes: (cart. coord. in units of alat)
               a(1) = (  -0.500000   0.000000   0.500000 )  
               a(2) = (   0.000000   0.500000   0.500000 )  
               a(3) = (  -0.500000   0.500000   0.000000 )  

     reciprocal axes: (cart. coord. in units 2 pi/alat)
               b(1) = ( -1.000000 -1.000000  1.000000 )  
               b(2) = (  1.000000  1.000000  1.000000 )  
               b(3) = ( -1.000000  1.000000 -1.000000 )  


     PseudoPot. # 1 for Si read from file:
     /home/acedemo/psudo/Si.pbe-mt_fhi.UPF
     MD5 check sum: 259057c2adf9952f9ced37ae3d9e311d
     Pseudo is Norm-conserving, Zval =  4.0
     Generated using FHI98PP, converted with fhi2upf.x v.5.0.2
     Using radial grid of  495 points,  3 beta functions with: 
                l(1) =   0
                l(2) =   1
                l(3) =   3

     atomic species   valence    mass     pseudopotential
        Si             4.00    28.08550     Si( 1.00)

     48 Sym. Ops., with inversion, found (24 have fractional translation)



   Cartesian axes

     site n.     atom                  positions (alat units)
         1           Si  tau(   1) = (   0.0000000   0.0000000   0.0000000  )
         2           Si  tau(   2) = (   0.2500000   0.2500000   0.2500000  )

     number of k points=    10  Marzari-Vanderbilt smearing, width (Ry)=  0.0500
                       cart. coord. in units 2pi/alat
        k(    1) = (   0.0000000   0.0000000   0.0000000), wk =   0.0160000
        k(    2) = (  -0.2000000   0.2000000  -0.2000000), wk =   0.1280000
        k(    3) = (  -0.4000000   0.4000000  -0.4000000), wk =   0.1280000
        k(    4) = (   0.0000000   0.4000000   0.0000000), wk =   0.0960000
        k(    5) = (  -0.2000000   0.6000000  -0.2000000), wk =   0.3840000
        k(    6) = (   0.6000000  -0.2000000   0.6000000), wk =   0.3840000
        k(    7) = (   0.4000000   0.0000000   0.4000000), wk =   0.1920000
        k(    8) = (   0.0000000   0.8000000   0.0000000), wk =   0.0960000
        k(    9) = (   0.8000000   0.0000000   0.8000000), wk =   0.1920000
        k(   10) = (   0.6000000  -0.2000000   1.0000000), wk =   0.3840000

     Dense  grid:    12939 G-vectors     FFT dimensions: (  36,  36,  36)

     Largest allocated arrays     est. size (Mb)     dimensions
        Kohn-Sham Wavefunctions         1.25 Mb     (    1639,   50)
        NL pseudopotentials             0.55 Mb     (    1639,   22)
        Each V/rho on FFT grid          0.71 Mb     (   46656)
        Each G-vector array             0.10 Mb     (   12939)
        G-vector shells                 0.00 Mb     (     180)
     Largest temporary arrays     est. size (Mb)     dimensions
        Auxiliary wavefunctions         5.00 Mb     (    1639,  200)
        Each subspace H/S matrix        0.61 Mb     (     200,  200)
        Each <psi_i|beta_j> matrix      0.02 Mb     (      22,   50)
        Arrays for rho mixing           5.70 Mb     (   46656,    8)

     Initial potential from superposition of free atoms

     starting charge    7.99859, renormalised to   98.00000
     Starting wfc are   32 randomized atomic wfcs +   18 random wfc

     total cpu time spent up to now is        2.3 secs

     per-process dynamical memory:    27.1 Mb

     Self-consistent Calculation

     iteration #  1     ecut=    50.00 Ry     beta=0.30
     Davidson diagonalization with overlap
     ethr =  1.00E-02,  avg # of iterations =  8.4

     total cpu time spent up to now is       22.8 secs

     total energy              =     291.10808797 Ry
     Harris-Foulkes estimate   =     -84.06809071 Ry
     estimated scf accuracy    <     791.91897844 Ry

     iteration #  2     ecut=    50.00 Ry     beta=0.30
     Davidson diagonalization with overlap
     ethr =  1.00E-02,  avg # of iterations =  4.1

     total cpu time spent up to now is       34.8 secs

     total energy              =     175.61900159 Ry
     Harris-Foulkes estimate   =     172.24790978 Ry
     estimated scf accuracy    <       7.10283398 Ry

     iteration #  3     ecut=    50.00 Ry     beta=0.30
     Davidson diagonalization with overlap
     ethr =  7.25E-03,  avg # of iterations =  3.4

     total cpu time spent up to now is       42.5 secs

     total energy              =     174.89231125 Ry
     Harris-Foulkes estimate   =     174.24552648 Ry
     estimated scf accuracy    <       1.73155316 Ry

     iteration #  4     ecut=    50.00 Ry     beta=0.30
     Davidson diagonalization with overlap
     ethr =  1.77E-03,  avg # of iterations =  3.3

     total cpu time spent up to now is       48.4 secs

     total energy              =     174.83532948 Ry
     Harris-Foulkes estimate   =     174.66034730 Ry
     estimated scf accuracy    <       0.32522453 Ry

     iteration #  5     ecut=    50.00 Ry     beta=0.30
     Davidson diagonalization with overlap
     ethr =  3.32E-04,  avg # of iterations =  3.2

     total cpu time spent up to now is       53.9 secs

     total energy              =     174.81883802 Ry
     Harris-Foulkes estimate   =     174.78025035 Ry
     estimated scf accuracy    <       0.07705135 Ry

     iteration #  6     ecut=    50.00 Ry     beta=0.30
     Davidson diagonalization with overlap
     ethr =  7.86E-05,  avg # of iterations =  3.0

     total cpu time spent up to now is       59.6 secs

     total energy              =     174.79940398 Ry
     Harris-Foulkes estimate   =     174.79778503 Ry
     estimated scf accuracy    <       0.00729108 Ry

     iteration #  7     ecut=    50.00 Ry     beta=0.30
     Davidson diagonalization with overlap
     ethr =  7.44E-06,  avg # of iterations =  2.2

     total cpu time spent up to now is       65.0 secs

     total energy              =     174.80021081 Ry
     Harris-Foulkes estimate   =     174.79910099 Ry
     estimated scf accuracy    <       0.00219528 Ry

     iteration #  8     ecut=    50.00 Ry     beta=0.30
     Davidson diagonalization with overlap
     ethr =  2.24E-06,  avg # of iterations =  3.0

     total cpu time spent up to now is       72.1 secs

     total energy              =     174.79965916 Ry
     Harris-Foulkes estimate   =     174.79957276 Ry
     estimated scf accuracy    <       0.00019568 Ry

     iteration #  9     ecut=    50.00 Ry     beta=0.30
     Davidson diagonalization with overlap
     ethr =  2.00E-07,  avg # of iterations =  2.9

     total cpu time spent up to now is       79.6 secs

     total energy              =     174.79961886 Ry
     Harris-Foulkes estimate   =     174.79961635 Ry
     estimated scf accuracy    <       0.00000640 Ry

     iteration # 10     ecut=    50.00 Ry     beta=0.30
     Davidson diagonalization with overlap
     ethr =  6.53E-09,  avg # of iterations =  3.0

     total cpu time spent up to now is       84.7 secs

     total energy              =     174.79961800 Ry
     Harris-Foulkes estimate   =     174.79961796 Ry
     estimated scf accuracy    <       0.00000014 Ry

     iteration # 11     ecut=    50.00 Ry     beta=0.30
     Davidson diagonalization with overlap
     ethr =  1.45E-10,  avg # of iterations =  3.5

     total cpu time spent up to now is       89.4 secs

     total energy              =     174.79961799 Ry
     Harris-Foulkes estimate   =     174.79961799 Ry
     estimated scf accuracy    <       0.00000001 Ry

     iteration # 12     ecut=    50.00 Ry     beta=0.30
     Davidson diagonalization with overlap
     ethr =  1.52E-11,  avg # of iterations =  3.0

     total cpu time spent up to now is       95.2 secs

     End of self-consistent calculation

          k = 0.0000 0.0000 0.0000 (  1639 PWs)   bands (ev):

   -16.1135  -2.0799  -2.0799  -2.0799  -1.8539  -1.8539  -1.8539   0.6249
     0.8998   2.7700   2.7700   3.5222   3.5222   3.5222   8.1814  20.5923
    20.5923  20.5923  22.0263  22.0263  23.5229  23.5229  23.5229  23.7261
    23.7261  23.7261  29.7804  33.6967  33.6967  33.6967  34.6959  34.6959
    35.0975  35.0975  37.0337  37.0337  37.0337  38.7781  38.7781  38.7781
    38.8502  38.8502  38.8502  39.0670  39.0670  39.0670  39.1657  39.1657
    39.1657  41.9590

          k =-0.2000 0.2000-0.2000 (  1606 PWs)   bands (ev):

   -15.5116  -6.6542  -3.3264  -3.3264  -1.4574  -0.4581  -0.4581   0.8495
     0.8495   0.8933   3.2763   5.8001   7.6301   7.6301  10.6387  15.1912
    15.1912  16.7031  21.8446  21.8446  24.0203  24.0203  24.3246  24.8652
    28.0909  28.0909  28.5402  30.3616  30.3616  31.1462  31.1462  31.9025
    32.3527  32.3527  32.4305  33.6352  35.5358  35.5358  36.8170  38.5985
    38.5985  38.6684  40.3951  40.5747  40.5747  42.0478  42.5688  42.5688
    44.0931  44.0931

          k =-0.4000 0.4000-0.4000 (  1616 PWs)   bands (ev):

   -13.7130 -10.7374  -3.6110  -3.6110  -2.3145  -2.3145  -1.6598  -0.5457
     4.3350   4.3350   6.4305   9.2401   9.2401  11.5595  13.1392  13.2570
    13.2570  15.3667  20.1290  20.1290  20.7645  22.1896  23.2802  23.2802
    25.5597  25.5597  26.0542  27.7239  27.7239  28.0509  28.0509  28.7658
    29.4630  31.5896  34.9497  34.9497  36.8416  37.5645  37.5645  38.9401
    40.4247  40.4247  42.1457  43.4000  43.4000  45.6845  47.1645  47.1645
    48.7945  48.7945

          k = 0.0000 0.4000 0.0000 (  1607 PWs)   bands (ev):

   -15.3111  -5.0305  -5.0305  -4.0190  -3.8781  -3.5047   2.3669   2.3669
     3.5782   4.0042   4.3495   4.5576   4.5576   7.2997  12.8794  15.1669
    15.1669  15.6481  18.2029  21.3473  23.8524  24.2908  24.2908  26.3152
    26.3152  27.1606  28.6741  30.5560  30.5560  30.5838  30.8997  33.0623
    33.8450  33.8450  34.0817  34.2024  35.3832  35.4870  35.4870  36.5103
    36.5103  38.1862  38.4978  41.7138  41.7138  42.2687  42.4483  43.3183
    43.4259  43.4259

          k =-0.2000 0.6000-0.2000 (  1619 PWs)   bands (ev):

   -13.9119  -8.9769  -6.0654  -5.6107  -4.4645  -1.1846   1.2181   2.5187
     2.9324   5.9856   7.4352   9.0105   9.3566  10.3502  10.7993  11.0392
    16.6612  17.0662  17.7258  17.8844  19.4222  22.0450  22.3535  24.1093
    25.3775  25.4364  26.0526  26.2750  27.9889  29.8534  30.7138  31.8694
    32.1752  32.4694  33.6136  35.3617  37.1818  37.3594  38.2018  39.1256
    39.9675  40.0719  40.6798  41.3624  41.7702  42.6798  42.7245  44.9473
    47.6186  47.8428

          k = 0.6000-0.2000 0.6000 (  1596 PWs)   bands (ev):

   -12.3235 -11.3272  -7.4221  -5.0413  -3.8946  -0.1023   1.0517   3.0807
     3.5620   3.7624   5.6162  10.5027  10.7896  11.7268  13.1384  15.6102
    15.9820  16.5160  17.7157  18.6880  18.7345  19.4767  20.2878  20.3728
    21.5027  23.8529  26.3406  26.9260  27.0091  27.8905  29.4622  31.2166
    32.6239  33.4159  34.3196  35.3622  36.1752  36.6840  40.4197  41.5594
    41.7521  42.3691  43.3481  43.6248  44.2384  45.0628  45.7111  47.0991
    48.8058  48.9355

          k = 0.4000 0.0000 0.4000 (  1610 PWs)   bands (ev):

   -14.5108  -7.6229  -7.6129  -3.3633  -2.2287  -0.2977  -0.2319   0.7665
     1.0360   4.8992   5.7028   8.2315   8.8226   9.1828  12.4619  14.2446
    15.5314  16.3156  16.8182  18.6535  22.8281  23.0149  23.4971  24.4272
    25.1934  25.2082  27.7408  28.2797  30.0649  30.4164  31.0024  31.1213
    31.8976  32.2356  32.4939  32.5123  34.1108  36.7865  37.6895  38.0583
    39.6740  39.6916  42.1844  43.2350  43.4551  44.5341  44.6620  45.7705
    45.8257  46.9834

          k = 0.0000 0.8000 0.0000 (  1624 PWs)   bands (ev):

   -12.9158  -8.9675  -6.5728  -6.5728  -5.4133  -5.3910   5.9683   5.9683
     6.0014   8.4128   9.1119   9.1119   9.5341  10.0331  10.2102  10.2102
    10.9590  14.0187  17.2151  17.2151  17.9457  18.7965  22.0732  23.7499
    26.4037  26.4037  26.8642  28.9200  29.8726  29.8726  31.5262  31.6297
    32.4808  32.8648  33.9170  33.9170  34.1723  34.1723  34.7668  36.3860
    39.8110  39.8110  42.3172  43.6047  45.8513  45.8513  48.1980  48.7611
    49.0269  49.2232

          k = 0.8000 0.0000 0.8000 (  1622 PWs)   bands (ev):

   -10.7406 -10.7380  -9.7567  -6.3808  -5.2084  -1.8952   4.3077   4.3650
     5.4146   5.5709   9.5169  10.1635  11.3290  11.9440  12.7112  13.2810
    13.4962  14.2654  14.8304  16.0855  17.3348  18.4604  20.6410  20.9604
    25.0822  25.5429  26.4142  27.7811  27.9322  28.6894  29.3675  29.7483
    30.7735  30.8642  35.6862  36.5210  36.5990  38.0764  40.4663  40.9181
    41.3765  41.5524  42.7658  44.1258  44.9868  45.4703  46.5017  47.0478
    47.9214  48.9878

          k = 0.6000-0.2000 1.0000 (  1616 PWs)   bands (ev):

   -12.1230  -9.1755  -9.1693  -8.1920  -1.5514  -1.3299  -0.0093   3.5014
     6.0596   6.4631   7.6798   8.1787  10.6075  12.0169  14.0395  14.0817
    14.5734  14.8383  16.1524  18.0874  18.8409  21.0366  21.2761  21.3475
    22.5047  22.5072  23.2987  24.0912  26.0721  29.6293  30.2094  32.8739
    33.3009  35.0024  35.8158  37.0828  37.5613  38.1584  38.4192  39.1385
    39.8523  40.6381  42.8386  44.0043  44.4922  45.3719  45.9654  47.0210
    47.0775  47.6478

     the Fermi energy is    47.9034 ev

!    total energy              =     174.79961799 Ry
     Harris-Foulkes estimate   =     174.79961799 Ry
     estimated scf accuracy    <          6.2E-10 Ry

     The total energy is the sum of the following terms:

     one-electron contribution =     303.46729854 Ry
     hartree contribution      =       4.11475817 Ry
     xc contribution           =    -115.98999824 Ry
     ewald contribution        =     -16.79708774 Ry
     smearing contrib. (-TS)   =       0.00464726 Ry

     convergence has been achieved in  12 iterations

     Forces acting on atoms (Ry/au):

     atom    1 type  1   force =     0.00000000   -0.00000000   -0.00000000
     atom    2 type  1   force =    -0.00000000    0.00000000    0.00000000

     Total force =     0.000000     Total SCF correction =     0.000000


     entering subroutine stress ...

          total   stress  (Ry/bohr**3)                   (kbar)     P=91958.32
   0.62512003   0.00000000   0.00000000      91958.32      0.00      0.00
   0.00000000   0.62512003  -0.00000000          0.00  91958.32     -0.00
   0.00000000  -0.00000000   0.62512003          0.00     -0.00  91958.32


     Writing output data file Si.save

     init_run     :      1.86s CPU      2.19s WALL (       1 calls)
     electrons    :     86.86s CPU     92.84s WALL (       1 calls)
     forces       :      0.15s CPU      0.15s WALL (       1 calls)
     stress       :      0.74s CPU      0.78s WALL (       1 calls)

     Called by init_run:
     wfcinit      :      1.68s CPU      1.90s WALL (       1 calls)
     potinit      :      0.05s CPU      0.09s WALL (       1 calls)

     Called by electrons:
     c_bands      :     78.47s CPU     84.09s WALL (      12 calls)
     sum_band     :      7.81s CPU      8.15s WALL (      12 calls)
     v_of_rho     :      0.57s CPU      0.61s WALL (      13 calls)
     mix_rho      :      0.04s CPU      0.05s WALL (      12 calls)

     Called by c_bands:
     init_us_2    :      0.39s CPU      0.43s WALL (     270 calls)
     cegterg      :     78.15s CPU     83.71s WALL (     120 calls)

     Called by *egterg:
     h_psi        :     47.73s CPU     51.02s WALL (     560 calls)
     g_psi        :      0.10s CPU      0.12s WALL (     430 calls)
     cdiaghg      :      7.37s CPU      7.92s WALL (     550 calls)

     Called by h_psi:
     add_vuspsi   :      1.33s CPU      1.45s WALL (     560 calls)

     General routines
     calbec       :      1.51s CPU      1.62s WALL (     580 calls)
     fft          :      0.21s CPU      0.23s WALL (     150 calls)
     fftw         :     49.28s CPU     52.45s WALL (   42150 calls)
     davcio       :      0.00s CPU      0.00s WALL (      10 calls)

     Parallel routines
     fft_scatter  :      1.29s CPU      1.37s WALL (   42300 calls)

     PWSCF        :  1m29.72s CPU     1m36.16s WALL


   This run was terminated on:  23: 5:45  13Feb2023            

=------------------------------------------------------------------------------=
   JOB DONE.
=------------------------------------------------------------------------------=
