
     Program PWSCF v.5.1 starts on  3May2022 at  2:20:30 

     This program is part of the open-source Quantum ESPRESSO suite
     for quantum simulation of materials; please cite
         "P. Giannozzi et al., J. Phys.:Condens. Matter 21 395502 (2009);
          URL http://www.quantum-espresso.org", 
     in publications or presentations arising from this work. More details at
     http://www.quantum-espresso.org/quote

     Parallel version (MPI), running on     1 processors
     Waiting for input...
     Reading input from standard input

     Current dimensions of program PWSCF are:
     Max number of different atomic species (ntypx) = 10
     Max number of k-points (npk) =  40000
     Max angular momentum in pseudopotentials (lmaxx) =  3

     Subspace diagonalization in iterative solution of the eigenvalue problem:
     a serial algorithm will be used


     G-vector sticks info
     --------------------
     sticks:   dense  smooth     PW     G-vecs:    dense   smooth      PW
     Sum         313     313    109                 3647     3647     725



     bravais-lattice index     =            2
     lattice parameter (alat)  =      11.5000  a.u.
     unit-cell volume          =     380.2188 (a.u.)^3
     number of atoms/cell      =            2
     number of atomic types    =            1
     number of electrons       =         8.00
     number of Kohn-Sham states=            4
     kinetic-energy cutoff     =      17.0000  Ry
     charge density cutoff     =      68.0000  Ry
     convergence threshold     =      1.0E-06
     mixing beta               =       0.7000
     number of iterations used =            8  plain     mixing
     Exchange-correlation      =  SLA  PW   PBE  PBE ( 1  4  3  4 0)

     celldm(1)=  11.500000  celldm(2)=   0.000000  celldm(3)=   0.000000
     celldm(4)=   0.000000  celldm(5)=   0.000000  celldm(6)=   0.000000

     crystal axes: (cart. coord. in units of alat)
               a(1) = (  -0.500000   0.000000   0.500000 )  
               a(2) = (   0.000000   0.500000   0.500000 )  
               a(3) = (  -0.500000   0.500000   0.000000 )  

     reciprocal axes: (cart. coord. in units 2 pi/alat)
               b(1) = ( -1.000000 -1.000000  1.000000 )  
               b(2) = (  1.000000  1.000000  1.000000 )  
               b(3) = ( -1.000000  1.000000 -1.000000 )  


     PseudoPot. # 1 for Si read from file:
     ./Si.pbe-rrkj.UPF
     MD5 check sum: cf7ab5690cd9a85b22c4813f7e365554
     Pseudo is Norm-conserving, Zval =  4.0
     Generated by new atomic code, or converted to UPF format
     Using radial grid of  883 points,  3 beta functions with: 
                l(1) =   0
                l(2) =   0
                l(3) =   1

     atomic species   valence    mass     pseudopotential
        Si             4.00    28.08600     Si( 1.00)

     48 Sym. Ops., with inversion, found (24 have fractional translation)



   Cartesian axes

     site n.     atom                  positions (alat units)
         1           Si  tau(   1) = (   0.0000000   0.0000000   0.0000000  )
         2           Si  tau(   2) = (   0.2500000   0.2500000   0.2500000  )

     number of k points=    19
                       cart. coord. in units 2pi/alat
        k(    1) = (  -0.1000000   0.1000000   0.1000000), wk =   0.0320000
        k(    2) = (  -0.3000000   0.3000000  -0.1000000), wk =   0.0960000
        k(    3) = (   0.5000000  -0.5000000   0.7000000), wk =   0.0960000
        k(    4) = (   0.3000000  -0.3000000   0.5000000), wk =   0.0960000
        k(    5) = (   0.1000000  -0.1000000   0.3000000), wk =   0.0960000
        k(    6) = (  -0.1000000   0.5000000   0.1000000), wk =   0.0960000
        k(    7) = (   0.7000000  -0.3000000   0.9000000), wk =   0.1920000
        k(    8) = (   0.5000000  -0.1000000   0.7000000), wk =   0.1920000
        k(    9) = (   0.3000000   0.1000000   0.5000000), wk =   0.1920000
        k(   10) = (  -0.1000000  -1.1000000   0.1000000), wk =   0.0960000
        k(   11) = (  -0.3000000  -0.9000000  -0.1000000), wk =   0.1920000
        k(   12) = (  -0.5000000  -0.7000000  -0.3000000), wk =   0.0960000
        k(   13) = (  -0.1000000  -0.7000000   0.1000000), wk =   0.0960000
        k(   14) = (  -0.3000000   0.3000000   0.3000000), wk =   0.0320000
        k(   15) = (   0.5000000  -0.5000000   1.1000000), wk =   0.0960000
        k(   16) = (   0.3000000  -0.3000000   0.9000000), wk =   0.0960000
        k(   17) = (  -0.3000000  -1.3000000   0.3000000), wk =   0.0960000
        k(   18) = (  -0.5000000  -1.1000000   0.1000000), wk =   0.0960000
        k(   19) = (   0.5000000  -0.5000000  -0.5000000), wk =   0.0160000

     Dense  grid:     3647 G-vectors     FFT dimensions: (  24,  24,  24)

     Largest allocated arrays     est. size (Mb)     dimensions
        Kohn-Sham Wavefunctions         0.03 Mb     (     464,    4)
        NL pseudopotentials             0.07 Mb     (     464,   10)
        Each V/rho on FFT grid          0.21 Mb     (   13824)
        Each G-vector array             0.03 Mb     (    3647)
        G-vector shells                 0.00 Mb     (      78)
     Largest temporary arrays     est. size (Mb)     dimensions
        Auxiliary wavefunctions         0.11 Mb     (     464,   16)
        Each subspace H/S matrix        0.00 Mb     (      16,   16)
        Each <psi_i|beta_j> matrix      0.00 Mb     (      10,    4)
        Arrays for rho mixing           1.69 Mb     (   13824,    8)

     Initial potential from superposition of free atoms

     starting charge    7.99889, renormalised to    8.00000
     Starting wfc are    8 randomized atomic wfcs

     total cpu time spent up to now is        0.6 secs

     per-process dynamical memory:     7.0 Mb

     Self-consistent Calculation

     iteration #  1     ecut=    17.00 Ry     beta=0.70
     Davidson diagonalization with overlap
     ethr =  1.00E-02,  avg # of iterations =  1.8

     Threshold (ethr) on eigenvalues was too large:
     Diagonalizing with lowered threshold

     Davidson diagonalization with overlap
     ethr =  3.49E-04,  avg # of iterations =  2.6

     total cpu time spent up to now is        1.3 secs

     total energy              =     -15.67587149 Ry
     Harris-Foulkes estimate   =     -15.67956454 Ry
     estimated scf accuracy    <       0.03209979 Ry

     iteration #  2     ecut=    17.00 Ry     beta=0.70
     Davidson diagonalization with overlap
     ethr =  4.01E-04,  avg # of iterations =  1.0

     total cpu time spent up to now is        1.5 secs

     total energy              =     -15.67624646 Ry
     Harris-Foulkes estimate   =     -15.67636184 Ry
     estimated scf accuracy    <       0.00232984 Ry

     iteration #  3     ecut=    17.00 Ry     beta=0.70
     Davidson diagonalization with overlap
     ethr =  2.91E-05,  avg # of iterations =  1.4

     total cpu time spent up to now is        1.7 secs

     total energy              =     -15.67635325 Ry
     Harris-Foulkes estimate   =     -15.67635559 Ry
     estimated scf accuracy    <       0.00001361 Ry

     iteration #  4     ecut=    17.00 Ry     beta=0.70
     Davidson diagonalization with overlap
     ethr =  1.70E-07,  avg # of iterations =  4.2

     total cpu time spent up to now is        2.1 secs

     total energy              =     -15.67638601 Ry
     Harris-Foulkes estimate   =     -15.67638672 Ry
     estimated scf accuracy    <       0.00000164 Ry

     iteration #  5     ecut=    17.00 Ry     beta=0.70
     Davidson diagonalization with overlap
     ethr =  2.05E-08,  avg # of iterations =  1.9

     total cpu time spent up to now is        2.4 secs

     End of self-consistent calculation

          k =-0.1000 0.1000 0.1000 (   456 PWs)   bands (ev):

    -6.6373   1.7524   3.0378   3.0378

          k =-0.3000 0.3000-0.1000 (   457 PWs)   bands (ev):

    -6.1413  -0.2808   1.9062   2.7780

          k = 0.5000-0.5000 0.7000 (   447 PWs)   bands (ev):

    -5.1861  -2.3405   1.5436   2.2423

          k = 0.3000-0.3000 0.5000 (   447 PWs)   bands (ev):

    -5.4906  -1.8063   1.8217   2.1035

          k = 0.1000-0.1000 0.3000 (   462 PWs)   bands (ev):

    -6.3838   0.5767   2.4805   2.5044

          k =-0.1000 0.5000 0.1000 (   449 PWs)   bands (ev):

    -5.8846  -0.6867   1.7361   1.8815

          k = 0.7000-0.3000 0.9000 (   445 PWs)   bands (ev):

    -4.9924  -2.2068   0.7609   1.4891

          k = 0.5000-0.1000 0.7000 (   447 PWs)   bands (ev):

    -4.7055  -2.5984   0.3791   1.6102

          k = 0.3000 0.1000 0.5000 (   450 PWs)   bands (ev):

    -5.6684  -1.2457   1.2594   2.1839

          k =-0.1000-1.1000 0.1000 (   454 PWs)   bands (ev):

    -4.2311  -3.1347   0.8824   1.2038

          k =-0.3000-0.9000-0.1000 (   450 PWs)   bands (ev):

    -4.1760  -3.1502   0.4856   1.0958

          k =-0.5000-0.7000-0.3000 (   452 PWs)   bands (ev):

    -4.8764  -2.6053   0.9360   1.8684

          k =-0.1000-0.7000 0.1000 (   450 PWs)   bands (ev):

    -5.1571  -1.9395   1.1724   1.4361

          k =-0.3000 0.3000 0.3000 (   456 PWs)   bands (ev):

    -5.9171  -1.0322   2.4956   2.4956

          k = 0.5000-0.5000 1.1000 (   448 PWs)   bands (ev):

    -5.2577  -1.9404   0.7134   2.2060

          k = 0.3000-0.3000 0.9000 (   451 PWs)   bands (ev):

    -4.3894  -2.9478   0.2489   1.5817

          k =-0.3000-1.3000 0.3000 (   447 PWs)   bands (ev):

    -4.9233  -2.4584   0.8579   1.7680

          k =-0.5000-1.1000 0.1000 (   450 PWs)   bands (ev):

    -4.1389  -3.1637   0.3378   0.9597

          k = 0.5000-0.5000-0.5000 (   464 PWs)   bands (ev):

    -5.1378  -2.5462   2.2652   2.2652

     highest occupied level (ev):     3.0378

!    total energy              =     -15.67638620 Ry
     Harris-Foulkes estimate   =     -15.67638619 Ry
     estimated scf accuracy    <          9.5E-09 Ry

     The total energy is the sum of the following terms:

     one-electron contribution =       2.38494516 Ry
     hartree contribution      =       1.41364379 Ry
     xc contribution           =      -4.48562406 Ry
     ewald contribution        =     -14.98935110 Ry

     convergence has been achieved in   5 iterations

     Writing output data file Si_exc1.save

     init_run     :      0.30s CPU      0.51s WALL (       1 calls)
     electrons    :      1.52s CPU      1.77s WALL (       1 calls)

     Called by init_run:
     wfcinit      :      0.16s CPU      0.21s WALL (       1 calls)
     potinit      :      0.02s CPU      0.04s WALL (       1 calls)

     Called by electrons:
     c_bands      :      1.20s CPU      1.38s WALL (       6 calls)
     sum_band     :      0.23s CPU      0.30s WALL (       6 calls)
     v_of_rho     :      0.08s CPU      0.11s WALL (       6 calls)
     mix_rho      :      0.01s CPU      0.01s WALL (       6 calls)

     Called by c_bands:
     init_us_2    :      0.04s CPU      0.05s WALL (     247 calls)
     cegterg      :      1.17s CPU      1.34s WALL (     114 calls)

     Called by *egterg:
     h_psi        :      1.16s CPU      1.34s WALL (     379 calls)
     g_psi        :      0.00s CPU      0.01s WALL (     246 calls)
     cdiaghg      :      0.03s CPU      0.03s WALL (     341 calls)

     Called by h_psi:
     add_vuspsi   :      0.03s CPU      0.04s WALL (     379 calls)

     General routines
     calbec       :      0.04s CPU      0.05s WALL (     379 calls)
     fft          :      0.05s CPU      0.11s WALL (      67 calls)
     fftw         :      1.15s CPU      1.33s WALL (    3210 calls)
     davcio       :      0.00s CPU      0.00s WALL (      19 calls)

     Parallel routines
     fft_scatter  :      0.08s CPU      0.08s WALL (    3277 calls)

     PWSCF        :     2.27s CPU         2.92s WALL


   This run was terminated on:   2:20:33   3May2022            

=------------------------------------------------------------------------------=
   JOB DONE.
=------------------------------------------------------------------------------=
