
     Program PWSCF v.5.1 starts on  3May2022 at  2:19:25 

     This program is part of the open-source Quantum ESPRESSO suite
     for quantum simulation of materials; please cite
         "P. Giannozzi et al., J. Phys.:Condens. Matter 21 395502 (2009);
          URL http://www.quantum-espresso.org", 
     in publications or presentations arising from this work. More details at
     http://www.quantum-espresso.org/quote

     Parallel version (MPI), running on     1 processors
     Waiting for input...
     Reading input from standard input

     Current dimensions of program PWSCF are:
     Max number of different atomic species (ntypx) = 10
     Max number of k-points (npk) =  40000
     Max angular momentum in pseudopotentials (lmaxx) =  3

     Subspace diagonalization in iterative solution of the eigenvalue problem:
     a serial algorithm will be used


     G-vector sticks info
     --------------------
     sticks:   dense  smooth     PW     G-vecs:    dense   smooth      PW
     Sum         253     253     91                 2733     2733     609



     bravais-lattice index     =            2
     lattice parameter (alat)  =      10.5000  a.u.
     unit-cell volume          =     289.4062 (a.u.)^3
     number of atoms/cell      =            2
     number of atomic types    =            1
     number of electrons       =         8.00
     number of Kohn-Sham states=            4
     kinetic-energy cutoff     =      17.0000  Ry
     charge density cutoff     =      68.0000  Ry
     convergence threshold     =      1.0E-06
     mixing beta               =       0.7000
     number of iterations used =            8  plain     mixing
     Exchange-correlation      =  SLA  PW   PBE  PBE ( 1  4  3  4 0)

     celldm(1)=  10.500000  celldm(2)=   0.000000  celldm(3)=   0.000000
     celldm(4)=   0.000000  celldm(5)=   0.000000  celldm(6)=   0.000000

     crystal axes: (cart. coord. in units of alat)
               a(1) = (  -0.500000   0.000000   0.500000 )  
               a(2) = (   0.000000   0.500000   0.500000 )  
               a(3) = (  -0.500000   0.500000   0.000000 )  

     reciprocal axes: (cart. coord. in units 2 pi/alat)
               b(1) = ( -1.000000 -1.000000  1.000000 )  
               b(2) = (  1.000000  1.000000  1.000000 )  
               b(3) = ( -1.000000  1.000000 -1.000000 )  


     PseudoPot. # 1 for Si read from file:
     ./Si.pbe-rrkj.UPF
     MD5 check sum: cf7ab5690cd9a85b22c4813f7e365554
     Pseudo is Norm-conserving, Zval =  4.0
     Generated by new atomic code, or converted to UPF format
     Using radial grid of  883 points,  3 beta functions with: 
                l(1) =   0
                l(2) =   0
                l(3) =   1

     atomic species   valence    mass     pseudopotential
        Si             4.00    28.08600     Si( 1.00)

     48 Sym. Ops., with inversion, found (24 have fractional translation)



   Cartesian axes

     site n.     atom                  positions (alat units)
         1           Si  tau(   1) = (   0.0000000   0.0000000   0.0000000  )
         2           Si  tau(   2) = (   0.2500000   0.2500000   0.2500000  )

     number of k points=    19
                       cart. coord. in units 2pi/alat
        k(    1) = (  -0.1000000   0.1000000   0.1000000), wk =   0.0320000
        k(    2) = (  -0.3000000   0.3000000  -0.1000000), wk =   0.0960000
        k(    3) = (   0.5000000  -0.5000000   0.7000000), wk =   0.0960000
        k(    4) = (   0.3000000  -0.3000000   0.5000000), wk =   0.0960000
        k(    5) = (   0.1000000  -0.1000000   0.3000000), wk =   0.0960000
        k(    6) = (  -0.1000000   0.5000000   0.1000000), wk =   0.0960000
        k(    7) = (   0.7000000  -0.3000000   0.9000000), wk =   0.1920000
        k(    8) = (   0.5000000  -0.1000000   0.7000000), wk =   0.1920000
        k(    9) = (   0.3000000   0.1000000   0.5000000), wk =   0.1920000
        k(   10) = (  -0.1000000  -1.1000000   0.1000000), wk =   0.0960000
        k(   11) = (  -0.3000000  -0.9000000  -0.1000000), wk =   0.1920000
        k(   12) = (  -0.5000000  -0.7000000  -0.3000000), wk =   0.0960000
        k(   13) = (  -0.1000000  -0.7000000   0.1000000), wk =   0.0960000
        k(   14) = (  -0.3000000   0.3000000   0.3000000), wk =   0.0320000
        k(   15) = (   0.5000000  -0.5000000   1.1000000), wk =   0.0960000
        k(   16) = (   0.3000000  -0.3000000   0.9000000), wk =   0.0960000
        k(   17) = (  -0.3000000  -1.3000000   0.3000000), wk =   0.0960000
        k(   18) = (  -0.5000000  -1.1000000   0.1000000), wk =   0.0960000
        k(   19) = (   0.5000000  -0.5000000  -0.5000000), wk =   0.0160000

     Dense  grid:     2733 G-vectors     FFT dimensions: (  20,  20,  20)

     Largest allocated arrays     est. size (Mb)     dimensions
        Kohn-Sham Wavefunctions         0.02 Mb     (     351,    4)
        NL pseudopotentials             0.05 Mb     (     351,   10)
        Each V/rho on FFT grid          0.12 Mb     (    8000)
        Each G-vector array             0.02 Mb     (    2733)
        G-vector shells                 0.00 Mb     (      65)
     Largest temporary arrays     est. size (Mb)     dimensions
        Auxiliary wavefunctions         0.09 Mb     (     351,   16)
        Each subspace H/S matrix        0.00 Mb     (      16,   16)
        Each <psi_i|beta_j> matrix      0.00 Mb     (      10,    4)
        Arrays for rho mixing           0.98 Mb     (    8000,    8)

     Initial potential from superposition of free atoms

     starting charge    7.99889, renormalised to    8.00000
     Starting wfc are    8 randomized atomic wfcs

     total cpu time spent up to now is        0.5 secs

     per-process dynamical memory:     5.8 Mb

     Self-consistent Calculation

     iteration #  1     ecut=    17.00 Ry     beta=0.70
     Davidson diagonalization with overlap
     ethr =  1.00E-02,  avg # of iterations =  2.0

     Threshold (ethr) on eigenvalues was too large:
     Diagonalizing with lowered threshold

     Davidson diagonalization with overlap
     ethr =  6.19E-04,  avg # of iterations =  1.9

     total cpu time spent up to now is        0.7 secs

     total energy              =     -15.73644517 Ry
     Harris-Foulkes estimate   =     -15.74743062 Ry
     estimated scf accuracy    <       0.05133483 Ry

     iteration #  2     ecut=    17.00 Ry     beta=0.70
     Davidson diagonalization with overlap
     ethr =  6.42E-04,  avg # of iterations =  1.0

     total cpu time spent up to now is        0.8 secs

     total energy              =     -15.73801977 Ry
     Harris-Foulkes estimate   =     -15.73810110 Ry
     estimated scf accuracy    <       0.00269885 Ry

     iteration #  3     ecut=    17.00 Ry     beta=0.70
     Davidson diagonalization with overlap
     ethr =  3.37E-05,  avg # of iterations =  2.2

     total cpu time spent up to now is        0.9 secs

     total energy              =     -15.73836096 Ry
     Harris-Foulkes estimate   =     -15.73838149 Ry
     estimated scf accuracy    <       0.00005861 Ry

     iteration #  4     ecut=    17.00 Ry     beta=0.70
     Davidson diagonalization with overlap
     ethr =  7.33E-07,  avg # of iterations =  2.8

     total cpu time spent up to now is        1.1 secs

     total energy              =     -15.73839313 Ry
     Harris-Foulkes estimate   =     -15.73839381 Ry
     estimated scf accuracy    <       0.00000235 Ry

     iteration #  5     ecut=    17.00 Ry     beta=0.70
     Davidson diagonalization with overlap
     ethr =  2.94E-08,  avg # of iterations =  2.5

     total cpu time spent up to now is        1.2 secs

     End of self-consistent calculation

          k =-0.1000 0.1000 0.1000 (   335 PWs)   bands (ev):

    -5.7907   4.4107   5.3559   5.3559

          k =-0.3000 0.3000-0.1000 (   339 PWs)   bands (ev):

    -5.1488   2.0073   3.8865   5.0579

          k = 0.5000-0.5000 0.7000 (   346 PWs)   bands (ev):

    -3.8437  -0.7392   3.5464   4.3630

          k = 0.3000-0.3000 0.5000 (   339 PWs)   bands (ev):

    -4.2788  -0.0064   3.9325   4.1536

          k = 0.1000-0.1000 0.3000 (   340 PWs)   bands (ev):

    -5.4645   3.1327   4.6022   4.7366

          k =-0.1000 0.5000 0.1000 (   342 PWs)   bands (ev):

    -4.8210   1.7359   3.6699   3.8272

          k = 0.7000-0.3000 0.9000 (   340 PWs)   bands (ev):

    -3.6432  -0.1657   2.3446   3.2949

          k = 0.5000-0.1000 0.7000 (   346 PWs)   bands (ev):

    -3.2316  -0.7201   1.8248   3.4645

          k = 0.3000 0.1000 0.5000 (   338 PWs)   bands (ev):

    -4.5306   0.9023   3.0424   4.2742

          k =-0.1000-1.1000 0.1000 (   340 PWs)   bands (ev):

    -2.6784  -1.2667   2.4870   2.9714

          k =-0.3000-0.9000-0.1000 (   347 PWs)   bands (ev):

    -2.5682  -1.2866   1.9043   2.7659

          k =-0.5000-0.7000-0.3000 (   346 PWs)   bands (ev):

    -3.4185  -0.9876   2.7426   3.8267

          k =-0.1000-0.7000 0.1000 (   335 PWs)   bands (ev):

    -3.8796   0.2429   2.8812   3.2634

          k =-0.3000 0.3000 0.3000 (   344 PWs)   bands (ev):

    -4.8502   0.9356   4.6778   4.6778

          k = 0.5000-0.5000 1.1000 (   344 PWs)   bands (ev):

    -3.9766   0.0217   2.3114   4.3014

          k = 0.3000-0.3000 0.9000 (   351 PWs)   bands (ev):

    -2.8018  -1.1316   1.6022   3.4675

          k =-0.3000-1.3000 0.3000 (   347 PWs)   bands (ev):

    -3.5133  -0.6986   2.5900   3.7111

          k =-0.5000-1.1000 0.1000 (   348 PWs)   bands (ev):

    -2.4888  -1.3139   1.7024   2.5368

          k = 0.5000-0.5000-0.5000 (   344 PWs)   bands (ev):

    -3.7467  -1.0932   4.4037   4.4037

     highest occupied level (ev):     5.3559

!    total energy              =     -15.73839378 Ry
     Harris-Foulkes estimate   =     -15.73839383 Ry
     estimated scf accuracy    <       0.00000012 Ry

     The total energy is the sum of the following terms:

     one-electron contribution =       4.26509074 Ry
     hartree contribution      =       1.15362148 Ry
     xc contribution           =      -4.74019762 Ry
     ewald contribution        =     -16.41690838 Ry

     convergence has been achieved in   5 iterations

     Writing output data file Si_exc1.save

     init_run     :      0.18s CPU      0.38s WALL (       1 calls)
     electrons    :      0.54s CPU      0.72s WALL (       1 calls)

     Called by init_run:
     wfcinit      :      0.06s CPU      0.13s WALL (       1 calls)
     potinit      :      0.01s CPU      0.05s WALL (       1 calls)

     Called by electrons:
     c_bands      :      0.42s CPU      0.56s WALL (       6 calls)
     sum_band     :      0.08s CPU      0.10s WALL (       6 calls)
     v_of_rho     :      0.04s CPU      0.05s WALL (       6 calls)
     mix_rho      :      0.00s CPU      0.01s WALL (       6 calls)

     Called by c_bands:
     init_us_2    :      0.03s CPU      0.05s WALL (     247 calls)
     cegterg      :      0.39s CPU      0.54s WALL (     114 calls)

     Called by *egterg:
     h_psi        :      0.33s CPU      0.47s WALL (     368 calls)
     g_psi        :      0.00s CPU      0.00s WALL (     235 calls)
     cdiaghg      :      0.03s CPU      0.04s WALL (     330 calls)

     Called by h_psi:
     add_vuspsi   :      0.03s CPU      0.04s WALL (     368 calls)

     General routines
     calbec       :      0.03s CPU      0.03s WALL (     368 calls)
     fft          :      0.01s CPU      0.01s WALL (      67 calls)
     fftw         :      0.23s CPU      0.32s WALL (    3176 calls)
     davcio       :      0.00s CPU      0.08s WALL (      19 calls)

     Parallel routines
     fft_scatter  :      0.05s CPU      0.07s WALL (    3243 calls)

     PWSCF        :     1.16s CPU         1.83s WALL


   This run was terminated on:   2:19:27   3May2022            

=------------------------------------------------------------------------------=
   JOB DONE.
=------------------------------------------------------------------------------=
