
     Program PWSCF v.5.1 starts on  3May2022 at  2:22:33 

     This program is part of the open-source Quantum ESPRESSO suite
     for quantum simulation of materials; please cite
         "P. Giannozzi et al., J. Phys.:Condens. Matter 21 395502 (2009);
          URL http://www.quantum-espresso.org", 
     in publications or presentations arising from this work. More details at
     http://www.quantum-espresso.org/quote

     Parallel version (MPI), running on     1 processors
     Waiting for input...
     Reading input from standard input

     Current dimensions of program PWSCF are:
     Max number of different atomic species (ntypx) = 10
     Max number of k-points (npk) =  40000
     Max angular momentum in pseudopotentials (lmaxx) =  3

     Subspace diagonalization in iterative solution of the eigenvalue problem:
     a serial algorithm will be used


     G-vector sticks info
     --------------------
     sticks:   dense  smooth     PW     G-vecs:    dense   smooth      PW
     Sum         433     433    151                 5817     5817    1139



     bravais-lattice index     =            2
     lattice parameter (alat)  =      13.5000  a.u.
     unit-cell volume          =     615.0938 (a.u.)^3
     number of atoms/cell      =            2
     number of atomic types    =            1
     number of electrons       =         8.00
     number of Kohn-Sham states=            4
     kinetic-energy cutoff     =      17.0000  Ry
     charge density cutoff     =      68.0000  Ry
     convergence threshold     =      1.0E-06
     mixing beta               =       0.7000
     number of iterations used =            8  plain     mixing
     Exchange-correlation      =  SLA  PW   PBE  PBE ( 1  4  3  4 0)

     celldm(1)=  13.500000  celldm(2)=   0.000000  celldm(3)=   0.000000
     celldm(4)=   0.000000  celldm(5)=   0.000000  celldm(6)=   0.000000

     crystal axes: (cart. coord. in units of alat)
               a(1) = (  -0.500000   0.000000   0.500000 )  
               a(2) = (   0.000000   0.500000   0.500000 )  
               a(3) = (  -0.500000   0.500000   0.000000 )  

     reciprocal axes: (cart. coord. in units 2 pi/alat)
               b(1) = ( -1.000000 -1.000000  1.000000 )  
               b(2) = (  1.000000  1.000000  1.000000 )  
               b(3) = ( -1.000000  1.000000 -1.000000 )  


     PseudoPot. # 1 for Si read from file:
     ./Si.pbe-rrkj.UPF
     MD5 check sum: cf7ab5690cd9a85b22c4813f7e365554
     Pseudo is Norm-conserving, Zval =  4.0
     Generated by new atomic code, or converted to UPF format
     Using radial grid of  883 points,  3 beta functions with: 
                l(1) =   0
                l(2) =   0
                l(3) =   1

     atomic species   valence    mass     pseudopotential
        Si             4.00    28.08600     Si( 1.00)

     24 Sym. Ops. (no inversion) found
          (note: 24 additional sym.ops. were found but ignored
           their fractional translations are incommensurate with FFT grid)


   Cartesian axes

     site n.     atom                  positions (alat units)
         1           Si  tau(   1) = (   0.0000000   0.0000000   0.0000000  )
         2           Si  tau(   2) = (   0.2500000   0.2500000   0.2500000  )

     number of k points=    19
                       cart. coord. in units 2pi/alat
        k(    1) = (  -0.1000000   0.1000000   0.1000000), wk =   0.0320000
        k(    2) = (  -0.3000000   0.3000000  -0.1000000), wk =   0.0960000
        k(    3) = (   0.5000000  -0.5000000   0.7000000), wk =   0.0960000
        k(    4) = (   0.3000000  -0.3000000   0.5000000), wk =   0.0960000
        k(    5) = (   0.1000000  -0.1000000   0.3000000), wk =   0.0960000
        k(    6) = (  -0.1000000   0.5000000   0.1000000), wk =   0.0960000
        k(    7) = (   0.7000000  -0.3000000   0.9000000), wk =   0.1920000
        k(    8) = (   0.5000000  -0.1000000   0.7000000), wk =   0.1920000
        k(    9) = (   0.3000000   0.1000000   0.5000000), wk =   0.1920000
        k(   10) = (  -0.1000000  -1.1000000   0.1000000), wk =   0.0960000
        k(   11) = (  -0.3000000  -0.9000000  -0.1000000), wk =   0.1920000
        k(   12) = (  -0.5000000  -0.7000000  -0.3000000), wk =   0.0960000
        k(   13) = (  -0.1000000  -0.7000000   0.1000000), wk =   0.0960000
        k(   14) = (  -0.3000000   0.3000000   0.3000000), wk =   0.0320000
        k(   15) = (   0.5000000  -0.5000000   1.1000000), wk =   0.0960000
        k(   16) = (   0.3000000  -0.3000000   0.9000000), wk =   0.0960000
        k(   17) = (  -0.3000000  -1.3000000   0.3000000), wk =   0.0960000
        k(   18) = (  -0.5000000  -1.1000000   0.1000000), wk =   0.0960000
        k(   19) = (   0.5000000  -0.5000000  -0.5000000), wk =   0.0160000

     Dense  grid:     5817 G-vectors     FFT dimensions: (  25,  25,  25)

     Largest allocated arrays     est. size (Mb)     dimensions
        Kohn-Sham Wavefunctions         0.05 Mb     (     745,    4)
        NL pseudopotentials             0.11 Mb     (     745,   10)
        Each V/rho on FFT grid          0.24 Mb     (   15625)
        Each G-vector array             0.04 Mb     (    5817)
        G-vector shells                 0.00 Mb     (     107)
     Largest temporary arrays     est. size (Mb)     dimensions
        Auxiliary wavefunctions         0.18 Mb     (     745,   16)
        Each subspace H/S matrix        0.00 Mb     (      16,   16)
        Each <psi_i|beta_j> matrix      0.00 Mb     (      10,    4)
        Arrays for rho mixing           1.91 Mb     (   15625,    8)

     Initial potential from superposition of free atoms

     starting charge    7.99889, renormalised to    8.00000
     Starting wfc are    8 randomized atomic wfcs

     total cpu time spent up to now is        0.6 secs

     per-process dynamical memory:     7.9 Mb

     Self-consistent Calculation

     iteration #  1     ecut=    17.00 Ry     beta=0.70
     Davidson diagonalization with overlap
     ethr =  1.00E-02,  avg # of iterations =  1.1

     Threshold (ethr) on eigenvalues was too large:
     Diagonalizing with lowered threshold

     Davidson diagonalization with overlap
     ethr =  1.52E-04,  avg # of iterations =  2.9

     total cpu time spent up to now is        1.1 secs

     total energy              =     -15.47628176 Ry
     Harris-Foulkes estimate   =     -15.47578927 Ry
     estimated scf accuracy    <       0.01467854 Ry

     iteration #  2     ecut=    17.00 Ry     beta=0.70
     Davidson diagonalization with overlap
     ethr =  1.83E-04,  avg # of iterations =  1.0

     total cpu time spent up to now is        1.3 secs

     total energy              =     -15.47639495 Ry
     Harris-Foulkes estimate   =     -15.47637625 Ry
     estimated scf accuracy    <       0.00133464 Ry

     iteration #  3     ecut=    17.00 Ry     beta=0.70
     Davidson diagonalization with overlap
     ethr =  1.67E-05,  avg # of iterations =  1.0

     total cpu time spent up to now is        1.4 secs

     total energy              =     -15.47642629 Ry
     Harris-Foulkes estimate   =     -15.47642497 Ry
     estimated scf accuracy    <       0.00000269 Ry

     iteration #  4     ecut=    17.00 Ry     beta=0.70
     Davidson diagonalization with overlap
     ethr =  3.36E-08,  avg # of iterations =  6.7

     total cpu time spent up to now is        1.8 secs

     End of self-consistent calculation

          k =-0.1000 0.1000 0.1000 (   728 PWs)   bands (ev):

    -7.7387  -3.1666   0.1818   0.1818

          k =-0.3000 0.3000-0.1000 (   730 PWs)   bands (ev):

    -7.4465  -3.9774  -0.4788   0.0062

          k = 0.5000-0.5000 0.7000 (   732 PWs)   bands (ev):

    -6.9262  -4.9617  -0.8154  -0.3181

          k = 0.3000-0.3000 0.5000 (   736 PWs)   bands (ev):

    -7.0824  -4.7041  -0.6612  -0.3831

          k = 0.1000-0.1000 0.3000 (   725 PWs)   bands (ev):

    -7.5877  -3.6199  -0.1580  -0.1289

          k =-0.1000 0.5000 0.1000 (   727 PWs)   bands (ev):

    -7.2919  -4.2824  -0.5806  -0.4906

          k = 0.7000-0.3000 0.9000 (   725 PWs)   bands (ev):

    -6.7821  -5.1136  -1.1280  -0.7197

          k = 0.5000-0.1000 0.7000 (   726 PWs)   bands (ev):

    -6.6355  -5.3101  -1.3357  -0.6535

          k = 0.3000 0.1000 0.5000 (   729 PWs)   bands (ev):

    -7.1723  -4.5182  -0.8551  -0.3440

          k =-0.1000-1.1000 0.1000 (   732 PWs)   bands (ev):

    -6.3238  -5.6850  -1.0680  -0.9165

          k =-0.3000-0.9000-0.1000 (   728 PWs)   bands (ev):

    -6.3117  -5.6905  -1.2592  -0.9428

          k =-0.5000-0.7000-0.3000 (   730 PWs)   bands (ev):

    -6.7533  -5.1842  -1.1218  -0.5158

          k =-0.1000-0.7000 0.1000 (   724 PWs)   bands (ev):

    -6.8640  -4.9947  -0.9000  -0.7689

          k =-0.3000 0.3000 0.3000 (   745 PWs)   bands (ev):

    -7.3208  -4.2711  -0.1556  -0.1556

          k = 0.5000-0.5000 1.1000 (   730 PWs)   bands (ev):

    -6.9451  -4.8917  -1.1633  -0.3316

          k = 0.3000-0.3000 0.9000 (   721 PWs)   bands (ev):

    -6.4579  -5.5259  -1.3919  -0.6929

          k =-0.3000-1.3000 0.3000 (   726 PWs)   bands (ev):

    -6.7645  -5.1572  -1.1328  -0.5814

          k =-0.5000-1.1000 0.1000 (   728 PWs)   bands (ev):

    -6.3042  -5.6941  -1.3357  -0.9930

          k = 0.5000-0.5000-0.5000 (   718 PWs)   bands (ev):

    -6.9141  -5.0035  -0.3086  -0.3086

     highest occupied level (ev):     0.1818

!    total energy              =     -15.47643869 Ry
     Harris-Foulkes estimate   =     -15.47643874 Ry
     estimated scf accuracy    <       0.00000058 Ry

     The total energy is the sum of the following terms:

     one-electron contribution =      -0.53414556 Ry
     hartree contribution      =       1.98646358 Ry
     xc contribution           =      -4.16005021 Ry
     ewald contribution        =     -12.76870650 Ry

     convergence has been achieved in   4 iterations

     Writing output data file Si_exc1.save

     init_run     :      0.27s CPU      0.49s WALL (       1 calls)
     electrons    :      1.01s CPU      1.26s WALL (       1 calls)

     Called by init_run:
     wfcinit      :      0.13s CPU      0.27s WALL (       1 calls)
     potinit      :      0.02s CPU      0.03s WALL (       1 calls)

     Called by electrons:
     c_bands      :      0.82s CPU      1.03s WALL (       5 calls)
     sum_band     :      0.12s CPU      0.16s WALL (       5 calls)
     v_of_rho     :      0.07s CPU      0.08s WALL (       5 calls)
     mix_rho      :      0.00s CPU      0.01s WALL (       5 calls)

     Called by c_bands:
     init_us_2    :      0.06s CPU      0.08s WALL (     209 calls)
     cegterg      :      0.77s CPU      0.97s WALL (      95 calls)

     Called by *egterg:
     h_psi        :      0.68s CPU      0.96s WALL (     356 calls)
     g_psi        :      0.01s CPU      0.01s WALL (     242 calls)
     cdiaghg      :      0.03s CPU      0.04s WALL (     318 calls)

     Called by h_psi:
     add_vuspsi   :      0.05s CPU      0.08s WALL (     356 calls)

     General routines
     calbec       :      0.05s CPU      0.07s WALL (     356 calls)
     fft          :      0.02s CPU      0.02s WALL (      56 calls)
     fftw         :      0.53s CPU      0.73s WALL (    2914 calls)
     davcio       :      0.00s CPU      0.02s WALL (      19 calls)

     Parallel routines
     fft_scatter  :      0.09s CPU      0.10s WALL (    2970 calls)

     PWSCF        :     1.68s CPU         2.34s WALL


   This run was terminated on:   2:22:36   3May2022            

=------------------------------------------------------------------------------=
   JOB DONE.
=------------------------------------------------------------------------------=
