
     Program PWSCF v.5.1 starts on  3May2022 at  2:18: 4 

     This program is part of the open-source Quantum ESPRESSO suite
     for quantum simulation of materials; please cite
         "P. Giannozzi et al., J. Phys.:Condens. Matter 21 395502 (2009);
          URL http://www.quantum-espresso.org", 
     in publications or presentations arising from this work. More details at
     http://www.quantum-espresso.org/quote

     Parallel version (MPI), running on     1 processors
     Waiting for input...
     Reading input from standard input

     Current dimensions of program PWSCF are:
     Max number of different atomic species (ntypx) = 10
     Max number of k-points (npk) =  40000
     Max angular momentum in pseudopotentials (lmaxx) =  3

     Subspace diagonalization in iterative solution of the eigenvalue problem:
     a serial algorithm will be used


     G-vector sticks info
     --------------------
     sticks:   dense  smooth     PW     G-vecs:    dense   smooth      PW
     Sum         163     163     61                 1459     1459     339



     bravais-lattice index     =            2
     lattice parameter (alat)  =       8.5000  a.u.
     unit-cell volume          =     153.5312 (a.u.)^3
     number of atoms/cell      =            2
     number of atomic types    =            1
     number of electrons       =         8.00
     number of Kohn-Sham states=            4
     kinetic-energy cutoff     =      17.0000  Ry
     charge density cutoff     =      68.0000  Ry
     convergence threshold     =      1.0E-06
     mixing beta               =       0.7000
     number of iterations used =            8  plain     mixing
     Exchange-correlation      =  SLA  PW   PBE  PBE ( 1  4  3  4 0)

     celldm(1)=   8.500000  celldm(2)=   0.000000  celldm(3)=   0.000000
     celldm(4)=   0.000000  celldm(5)=   0.000000  celldm(6)=   0.000000

     crystal axes: (cart. coord. in units of alat)
               a(1) = (  -0.500000   0.000000   0.500000 )  
               a(2) = (   0.000000   0.500000   0.500000 )  
               a(3) = (  -0.500000   0.500000   0.000000 )  

     reciprocal axes: (cart. coord. in units 2 pi/alat)
               b(1) = ( -1.000000 -1.000000  1.000000 )  
               b(2) = (  1.000000  1.000000  1.000000 )  
               b(3) = ( -1.000000  1.000000 -1.000000 )  


     PseudoPot. # 1 for Si read from file:
     ./Si.pbe-rrkj.UPF
     MD5 check sum: cf7ab5690cd9a85b22c4813f7e365554
     Pseudo is Norm-conserving, Zval =  4.0
     Generated by new atomic code, or converted to UPF format
     Using radial grid of  883 points,  3 beta functions with: 
                l(1) =   0
                l(2) =   0
                l(3) =   1

     atomic species   valence    mass     pseudopotential
        Si             4.00    28.08600     Si( 1.00)

     24 Sym. Ops. (no inversion) found
          (note: 24 additional sym.ops. were found but ignored
           their fractional translations are incommensurate with FFT grid)


   Cartesian axes

     site n.     atom                  positions (alat units)
         1           Si  tau(   1) = (   0.0000000   0.0000000   0.0000000  )
         2           Si  tau(   2) = (   0.2500000   0.2500000   0.2500000  )

     number of k points=    19
                       cart. coord. in units 2pi/alat
        k(    1) = (  -0.1000000   0.1000000   0.1000000), wk =   0.0320000
        k(    2) = (  -0.3000000   0.3000000  -0.1000000), wk =   0.0960000
        k(    3) = (   0.5000000  -0.5000000   0.7000000), wk =   0.0960000
        k(    4) = (   0.3000000  -0.3000000   0.5000000), wk =   0.0960000
        k(    5) = (   0.1000000  -0.1000000   0.3000000), wk =   0.0960000
        k(    6) = (  -0.1000000   0.5000000   0.1000000), wk =   0.0960000
        k(    7) = (   0.7000000  -0.3000000   0.9000000), wk =   0.1920000
        k(    8) = (   0.5000000  -0.1000000   0.7000000), wk =   0.1920000
        k(    9) = (   0.3000000   0.1000000   0.5000000), wk =   0.1920000
        k(   10) = (  -0.1000000  -1.1000000   0.1000000), wk =   0.0960000
        k(   11) = (  -0.3000000  -0.9000000  -0.1000000), wk =   0.1920000
        k(   12) = (  -0.5000000  -0.7000000  -0.3000000), wk =   0.0960000
        k(   13) = (  -0.1000000  -0.7000000   0.1000000), wk =   0.0960000
        k(   14) = (  -0.3000000   0.3000000   0.3000000), wk =   0.0320000
        k(   15) = (   0.5000000  -0.5000000   1.1000000), wk =   0.0960000
        k(   16) = (   0.3000000  -0.3000000   0.9000000), wk =   0.0960000
        k(   17) = (  -0.3000000  -1.3000000   0.3000000), wk =   0.0960000
        k(   18) = (  -0.5000000  -1.1000000   0.1000000), wk =   0.0960000
        k(   19) = (   0.5000000  -0.5000000  -0.5000000), wk =   0.0160000

     Dense  grid:     1459 G-vectors     FFT dimensions: (  15,  15,  15)

     Largest allocated arrays     est. size (Mb)     dimensions
        Kohn-Sham Wavefunctions         0.01 Mb     (     188,    4)
        NL pseudopotentials             0.03 Mb     (     188,   10)
        Each V/rho on FFT grid          0.05 Mb     (    3375)
        Each G-vector array             0.01 Mb     (    1459)
        G-vector shells                 0.00 Mb     (      43)
     Largest temporary arrays     est. size (Mb)     dimensions
        Auxiliary wavefunctions         0.05 Mb     (     188,   16)
        Each subspace H/S matrix        0.00 Mb     (      16,   16)
        Each <psi_i|beta_j> matrix      0.00 Mb     (      10,    4)
        Arrays for rho mixing           0.41 Mb     (    3375,    8)

     Initial potential from superposition of free atoms

     starting charge    7.99889, renormalised to    8.00000
     Starting wfc are    8 randomized atomic wfcs

     total cpu time spent up to now is        0.3 secs

     per-process dynamical memory:     4.9 Mb

     Self-consistent Calculation

     iteration #  1     ecut=    17.00 Ry     beta=0.70
     Davidson diagonalization with overlap
     ethr =  1.00E-02,  avg # of iterations =  2.0

     total cpu time spent up to now is        0.4 secs

     total energy              =     -15.30448237 Ry
     Harris-Foulkes estimate   =     -15.34820245 Ry
     estimated scf accuracy    <       0.12414143 Ry

     iteration #  2     ecut=    17.00 Ry     beta=0.70
     Davidson diagonalization with overlap
     ethr =  1.55E-03,  avg # of iterations =  1.7

     total cpu time spent up to now is        0.5 secs

     total energy              =     -15.31685383 Ry
     Harris-Foulkes estimate   =     -15.31621861 Ry
     estimated scf accuracy    <       0.00265280 Ry

     iteration #  3     ecut=    17.00 Ry     beta=0.70
     Davidson diagonalization with overlap
     ethr =  3.32E-05,  avg # of iterations =  2.9

     total cpu time spent up to now is        0.7 secs

     total energy              =     -15.31812956 Ry
     Harris-Foulkes estimate   =     -15.31815362 Ry
     estimated scf accuracy    <       0.00013259 Ry

     iteration #  4     ecut=    17.00 Ry     beta=0.70
     Davidson diagonalization with overlap
     ethr =  1.66E-06,  avg # of iterations =  2.1

     total cpu time spent up to now is        0.8 secs

     total energy              =     -15.31815179 Ry
     Harris-Foulkes estimate   =     -15.31815494 Ry
     estimated scf accuracy    <       0.00001137 Ry

     iteration #  5     ecut=    17.00 Ry     beta=0.70
     Davidson diagonalization with overlap
     ethr =  1.42E-07,  avg # of iterations =  1.9

     total cpu time spent up to now is        0.8 secs

     End of self-consistent calculation

          k =-0.1000 0.1000 0.1000 (   172 PWs)   bands (ev):

    -2.7165  12.2587  13.4788  13.4788

          k =-0.3000 0.3000-0.1000 (   180 PWs)   bands (ev):

    -1.6342   8.8641  11.0200  13.2363

          k = 0.5000-0.5000 0.7000 (   181 PWs)   bands (ev):

     0.8678   4.1376  10.8155  12.0393

          k = 0.3000-0.3000 0.5000 (   181 PWs)   bands (ev):

    -0.0697   5.5322  11.5065  11.6343

          k = 0.1000-0.1000 0.3000 (   174 PWs)   bands (ev):

    -2.1722  10.6078  12.0730  12.8577

          k =-0.1000 0.5000 0.1000 (   182 PWs)   bands (ev):

    -1.0933   9.1122  10.7840  10.9399

          k = 0.7000-0.3000 0.9000 (   186 PWs)   bands (ev):

     0.9840   6.2854   8.3997   9.6321

          k = 0.5000-0.1000 0.7000 (   180 PWs)   bands (ev):

     1.8922   5.0343   7.4490  10.0409

          k = 0.3000 0.1000 0.5000 (   180 PWs)   bands (ev):

    -0.5708   7.4061   9.6855  11.8015

          k =-0.1000-1.1000 0.1000 (   186 PWs)   bands (ev):

     2.5517   4.9732   8.2424   9.4247

          k =-0.3000-0.9000-0.1000 (   184 PWs)   bands (ev):

     2.9402   5.0160   6.9410   8.7163

          k =-0.5000-0.7000-0.3000 (   178 PWs)   bands (ev):

     1.8142   3.7019   9.6200  10.7506

          k =-0.1000-0.7000 0.1000 (   184 PWs)   bands (ev):

     0.4964   7.4195   9.0094   9.8843

          k =-0.3000 0.3000 0.3000 (   183 PWs)   bands (ev):

    -1.1056   6.9975  12.4978  12.4978

          k = 0.5000-0.5000 1.1000 (   182 PWs)   bands (ev):

     0.4509   5.9864   8.4129  11.8386

          k = 0.3000-0.3000 0.9000 (   182 PWs)   bands (ev):

     2.8278   4.4912   6.6984  10.2924

          k =-0.3000-1.3000 0.3000 (   184 PWs)   bands (ev):

     1.3970   4.5835   9.2017  10.7144

          k =-0.5000-1.1000 0.1000 (   188 PWs)   bands (ev):

     3.3263   4.7538   6.7427   8.0040

          k = 0.5000-0.5000-0.5000 (   180 PWs)   bands (ev):

     1.2879   3.2256  12.1864  12.1864

     highest occupied level (ev):    13.4788

!    total energy              =     -15.31815316 Ry
     Harris-Foulkes estimate   =     -15.31815315 Ry
     estimated scf accuracy    <       0.00000002 Ry

     The total energy is the sum of the following terms:

     one-electron contribution =       9.80883035 Ry
     hartree contribution      =       0.65124234 Ry
     xc contribution           =      -5.49851554 Ry
     ewald contribution        =     -20.27971030 Ry

     convergence has been achieved in   5 iterations

     Writing output data file Si_exc1.save

     init_run     :      0.14s CPU      0.16s WALL (       1 calls)
     electrons    :      0.26s CPU      0.51s WALL (       1 calls)

     Called by init_run:
     wfcinit      :      0.03s CPU      0.03s WALL (       1 calls)
     potinit      :      0.01s CPU      0.01s WALL (       1 calls)

     Called by electrons:
     c_bands      :      0.21s CPU      0.43s WALL (       5 calls)
     sum_band     :      0.03s CPU      0.05s WALL (       5 calls)
     v_of_rho     :      0.02s CPU      0.03s WALL (       6 calls)
     mix_rho      :      0.00s CPU      0.00s WALL (       5 calls)

     Called by c_bands:
     init_us_2    :      0.01s CPU      0.04s WALL (     209 calls)
     cegterg      :      0.19s CPU      0.39s WALL (      95 calls)

     Called by *egterg:
     h_psi        :      0.15s CPU      0.28s WALL (     317 calls)
     g_psi        :      0.00s CPU      0.00s WALL (     203 calls)
     cdiaghg      :      0.02s CPU      0.05s WALL (     298 calls)

     Called by h_psi:
     add_vuspsi   :      0.01s CPU      0.03s WALL (     317 calls)

     General routines
     calbec       :      0.01s CPU      0.01s WALL (     317 calls)
     fft          :      0.00s CPU      0.00s WALL (      65 calls)
     fftw         :      0.11s CPU      0.21s WALL (    2810 calls)
     davcio       :      0.00s CPU      0.00s WALL (      19 calls)

     Parallel routines
     fft_scatter  :      0.02s CPU      0.03s WALL (    2875 calls)

     PWSCF        :     0.80s CPU         1.31s WALL


   This run was terminated on:   2:18: 6   3May2022            

=------------------------------------------------------------------------------=
   JOB DONE.
=------------------------------------------------------------------------------=
