
     Program PWSCF v.5.1 starts on  3May2022 at  2:19: 9 

     This program is part of the open-source Quantum ESPRESSO suite
     for quantum simulation of materials; please cite
         "P. Giannozzi et al., J. Phys.:Condens. Matter 21 395502 (2009);
          URL http://www.quantum-espresso.org", 
     in publications or presentations arising from this work. More details at
     http://www.quantum-espresso.org/quote

     Parallel version (MPI), running on     1 processors
     Waiting for input...
     Reading input from standard input

     Current dimensions of program PWSCF are:
     Max number of different atomic species (ntypx) = 10
     Max number of k-points (npk) =  40000
     Max angular momentum in pseudopotentials (lmaxx) =  3

     Subspace diagonalization in iterative solution of the eigenvalue problem:
     a serial algorithm will be used


     G-vector sticks info
     --------------------
     sticks:   dense  smooth     PW     G-vecs:    dense   smooth      PW
     Sum         241     241     85                 2421     2421     531



     bravais-lattice index     =            2
     lattice parameter (alat)  =      10.0000  a.u.
     unit-cell volume          =     250.0000 (a.u.)^3
     number of atoms/cell      =            2
     number of atomic types    =            1
     number of electrons       =         8.00
     number of Kohn-Sham states=            4
     kinetic-energy cutoff     =      17.0000  Ry
     charge density cutoff     =      68.0000  Ry
     convergence threshold     =      1.0E-06
     mixing beta               =       0.7000
     number of iterations used =            8  plain     mixing
     Exchange-correlation      =  SLA  PW   PBE  PBE ( 1  4  3  4 0)

     celldm(1)=  10.000000  celldm(2)=   0.000000  celldm(3)=   0.000000
     celldm(4)=   0.000000  celldm(5)=   0.000000  celldm(6)=   0.000000

     crystal axes: (cart. coord. in units of alat)
               a(1) = (  -0.500000   0.000000   0.500000 )  
               a(2) = (   0.000000   0.500000   0.500000 )  
               a(3) = (  -0.500000   0.500000   0.000000 )  

     reciprocal axes: (cart. coord. in units 2 pi/alat)
               b(1) = ( -1.000000 -1.000000  1.000000 )  
               b(2) = (  1.000000  1.000000  1.000000 )  
               b(3) = ( -1.000000  1.000000 -1.000000 )  


     PseudoPot. # 1 for Si read from file:
     ./Si.pbe-rrkj.UPF
     MD5 check sum: cf7ab5690cd9a85b22c4813f7e365554
     Pseudo is Norm-conserving, Zval =  4.0
     Generated by new atomic code, or converted to UPF format
     Using radial grid of  883 points,  3 beta functions with: 
                l(1) =   0
                l(2) =   0
                l(3) =   1

     atomic species   valence    mass     pseudopotential
        Si             4.00    28.08600     Si( 1.00)

     48 Sym. Ops., with inversion, found (24 have fractional translation)



   Cartesian axes

     site n.     atom                  positions (alat units)
         1           Si  tau(   1) = (   0.0000000   0.0000000   0.0000000  )
         2           Si  tau(   2) = (   0.2500000   0.2500000   0.2500000  )

     number of k points=    19
                       cart. coord. in units 2pi/alat
        k(    1) = (  -0.1000000   0.1000000   0.1000000), wk =   0.0320000
        k(    2) = (  -0.3000000   0.3000000  -0.1000000), wk =   0.0960000
        k(    3) = (   0.5000000  -0.5000000   0.7000000), wk =   0.0960000
        k(    4) = (   0.3000000  -0.3000000   0.5000000), wk =   0.0960000
        k(    5) = (   0.1000000  -0.1000000   0.3000000), wk =   0.0960000
        k(    6) = (  -0.1000000   0.5000000   0.1000000), wk =   0.0960000
        k(    7) = (   0.7000000  -0.3000000   0.9000000), wk =   0.1920000
        k(    8) = (   0.5000000  -0.1000000   0.7000000), wk =   0.1920000
        k(    9) = (   0.3000000   0.1000000   0.5000000), wk =   0.1920000
        k(   10) = (  -0.1000000  -1.1000000   0.1000000), wk =   0.0960000
        k(   11) = (  -0.3000000  -0.9000000  -0.1000000), wk =   0.1920000
        k(   12) = (  -0.5000000  -0.7000000  -0.3000000), wk =   0.0960000
        k(   13) = (  -0.1000000  -0.7000000   0.1000000), wk =   0.0960000
        k(   14) = (  -0.3000000   0.3000000   0.3000000), wk =   0.0320000
        k(   15) = (   0.5000000  -0.5000000   1.1000000), wk =   0.0960000
        k(   16) = (   0.3000000  -0.3000000   0.9000000), wk =   0.0960000
        k(   17) = (  -0.3000000  -1.3000000   0.3000000), wk =   0.0960000
        k(   18) = (  -0.5000000  -1.1000000   0.1000000), wk =   0.0960000
        k(   19) = (   0.5000000  -0.5000000  -0.5000000), wk =   0.0160000

     Dense  grid:     2421 G-vectors     FFT dimensions: (  20,  20,  20)

     Largest allocated arrays     est. size (Mb)     dimensions
        Kohn-Sham Wavefunctions         0.02 Mb     (     304,    4)
        NL pseudopotentials             0.05 Mb     (     304,   10)
        Each V/rho on FFT grid          0.12 Mb     (    8000)
        Each G-vector array             0.02 Mb     (    2421)
        G-vector shells                 0.00 Mb     (      60)
     Largest temporary arrays     est. size (Mb)     dimensions
        Auxiliary wavefunctions         0.07 Mb     (     304,   16)
        Each subspace H/S matrix        0.00 Mb     (      16,   16)
        Each <psi_i|beta_j> matrix      0.00 Mb     (      10,    4)
        Arrays for rho mixing           0.98 Mb     (    8000,    8)

     Initial potential from superposition of free atoms

     starting charge    7.99889, renormalised to    8.00000
     Starting wfc are    8 randomized atomic wfcs

     total cpu time spent up to now is        0.5 secs

     per-process dynamical memory:     5.7 Mb

     Self-consistent Calculation

     iteration #  1     ecut=    17.00 Ry     beta=0.70
     Davidson diagonalization with overlap
     ethr =  1.00E-02,  avg # of iterations =  2.0

     Threshold (ethr) on eigenvalues was too large:
     Diagonalizing with lowered threshold

     Davidson diagonalization with overlap
     ethr =  8.30E-04,  avg # of iterations =  1.1

     total cpu time spent up to now is        0.6 secs

     total energy              =     -15.72695054 Ry
     Harris-Foulkes estimate   =     -15.74391330 Ry
     estimated scf accuracy    <       0.06511593 Ry

     iteration #  2     ecut=    17.00 Ry     beta=0.70
     Davidson diagonalization with overlap
     ethr =  8.14E-04,  avg # of iterations =  1.0

     total cpu time spent up to now is        0.8 secs

     total energy              =     -15.72962859 Ry
     Harris-Foulkes estimate   =     -15.72964622 Ry
     estimated scf accuracy    <       0.00279994 Ry

     iteration #  3     ecut=    17.00 Ry     beta=0.70
     Davidson diagonalization with overlap
     ethr =  3.50E-05,  avg # of iterations =  2.7

     total cpu time spent up to now is        0.9 secs

     total energy              =     -15.73015017 Ry
     Harris-Foulkes estimate   =     -15.73017984 Ry
     estimated scf accuracy    <       0.00008115 Ry

     iteration #  4     ecut=    17.00 Ry     beta=0.70
     Davidson diagonalization with overlap
     ethr =  1.01E-06,  avg # of iterations =  2.3

     total cpu time spent up to now is        1.1 secs

     total energy              =     -15.73017548 Ry
     Harris-Foulkes estimate   =     -15.73017729 Ry
     estimated scf accuracy    <       0.00000651 Ry

     iteration #  5     ecut=    17.00 Ry     beta=0.70
     Davidson diagonalization with overlap
     ethr =  8.14E-08,  avg # of iterations =  2.1

     total cpu time spent up to now is        1.2 secs

     End of self-consistent calculation

          k =-0.1000 0.1000 0.1000 (   304 PWs)   bands (ev):

    -5.2416   5.9201   6.8575   6.8575

          k =-0.3000 0.3000-0.1000 (   302 PWs)   bands (ev):

    -4.5108   3.3452   5.1853   6.5471

          k = 0.5000-0.5000 0.7000 (   296 PWs)   bands (ev):

    -2.9796   0.2016   4.8647   5.7545

          k = 0.3000-0.3000 0.5000 (   297 PWs)   bands (ev):

    -3.5041   1.0583   5.3247   5.4940

          k = 0.1000-0.1000 0.3000 (   299 PWs)   bands (ev):

    -4.8713   4.6018   5.9781   6.2098

          k =-0.1000 0.5000 0.1000 (   298 PWs)   bands (ev):

    -4.1402   3.1888   4.9539   5.0978

          k = 0.7000-0.3000 0.9000 (   299 PWs)   bands (ev):

    -2.7853   1.0849   3.4010   4.4675

          k = 0.5000-0.1000 0.7000 (   292 PWs)   bands (ev):

    -2.2873   0.4166   2.7980   4.6714

          k = 0.3000 0.1000 0.5000 (   297 PWs)   bands (ev):

    -3.8037   2.1785   4.2289   5.6433

          k =-0.1000-1.1000 0.1000 (   299 PWs)   bands (ev):

    -1.6989  -0.0943   3.5354   4.1358

          k =-0.3000-0.9000-0.1000 (   292 PWs)   bands (ev):

    -1.5451  -0.1128   2.8283   3.8549

          k =-0.5000-0.7000-0.3000 (   296 PWs)   bands (ev):

    -2.4742  -0.0486   3.9613   5.1019

          k =-0.1000-0.7000 0.1000 (   301 PWs)   bands (ev):

    -3.0693   1.5985   3.9987   4.4623

          k =-0.3000 0.3000 0.3000 (   299 PWs)   bands (ev):

    -4.1664   2.1001   6.1032   6.1032

          k = 0.5000-0.5000 1.1000 (   293 PWs)   bands (ev):

    -3.1587   1.1925   3.3861   5.6733

          k = 0.3000-0.3000 0.9000 (   292 PWs)   bands (ev):

    -1.7793  -0.0213   2.4989   4.7063

          k =-0.3000-1.3000 0.3000 (   291 PWs)   bands (ev):

    -2.6091   0.3406   3.7609   4.9849

          k =-0.5000-1.1000 0.1000 (   286 PWs)   bands (ev):

    -1.4291  -0.1542   2.5981   3.5554

          k = 0.5000-0.5000-0.5000 (   302 PWs)   bands (ev):

    -2.8420  -0.2477   5.8075   5.8075

     highest occupied level (ev):     6.8575

!    total energy              =     -15.73017661 Ry
     Harris-Foulkes estimate   =     -15.73017665 Ry
     estimated scf accuracy    <       0.00000013 Ry

     The total energy is the sum of the following terms:

     one-electron contribution =       5.37503125 Ry
     hartree contribution      =       1.02803963 Ry
     xc contribution           =      -4.89549354 Ry
     ewald contribution        =     -17.23775395 Ry

     convergence has been achieved in   5 iterations

     Writing output data file Si_exc1.save

     init_run     :      0.16s CPU      0.37s WALL (       1 calls)
     electrons    :      0.51s CPU      0.69s WALL (       1 calls)

     Called by init_run:
     wfcinit      :      0.05s CPU      0.11s WALL (       1 calls)
     potinit      :      0.01s CPU      0.03s WALL (       1 calls)

     Called by electrons:
     c_bands      :      0.39s CPU      0.53s WALL (       6 calls)
     sum_band     :      0.07s CPU      0.10s WALL (       6 calls)
     v_of_rho     :      0.04s CPU      0.06s WALL (       6 calls)
     mix_rho      :      0.00s CPU      0.00s WALL (       6 calls)

     Called by c_bands:
     init_us_2    :      0.03s CPU      0.04s WALL (     247 calls)
     cegterg      :      0.37s CPU      0.49s WALL (     114 calls)

     Called by *egterg:
     h_psi        :      0.31s CPU      0.45s WALL (     345 calls)
     g_psi        :      0.00s CPU      0.00s WALL (     212 calls)
     cdiaghg      :      0.03s CPU      0.03s WALL (     307 calls)

     Called by h_psi:
     add_vuspsi   :      0.02s CPU      0.03s WALL (     345 calls)

     General routines
     calbec       :      0.02s CPU      0.04s WALL (     345 calls)
     fft          :      0.01s CPU      0.01s WALL (      67 calls)
     fftw         :      0.23s CPU      0.33s WALL (    3138 calls)
     davcio       :      0.00s CPU      0.00s WALL (      19 calls)

     Parallel routines
     fft_scatter  :      0.05s CPU      0.07s WALL (    3205 calls)

     PWSCF        :     1.12s CPU         1.70s WALL


   This run was terminated on:   2:19:11   3May2022            

=------------------------------------------------------------------------------=
   JOB DONE.
=------------------------------------------------------------------------------=
