
     Program PWSCF v.5.1 starts on  3May2022 at  2:18:24 

     This program is part of the open-source Quantum ESPRESSO suite
     for quantum simulation of materials; please cite
         "P. Giannozzi et al., J. Phys.:Condens. Matter 21 395502 (2009);
          URL http://www.quantum-espresso.org", 
     in publications or presentations arising from this work. More details at
     http://www.quantum-espresso.org/quote

     Parallel version (MPI), running on     1 processors
     Waiting for input...
     Reading input from standard input

     Current dimensions of program PWSCF are:
     Max number of different atomic species (ntypx) = 10
     Max number of k-points (npk) =  40000
     Max angular momentum in pseudopotentials (lmaxx) =  3

     Subspace diagonalization in iterative solution of the eigenvalue problem:
     a serial algorithm will be used


     G-vector sticks info
     --------------------
     sticks:   dense  smooth     PW     G-vecs:    dense   smooth      PW
     Sum         199     199     73                 1759     1759     411



     bravais-lattice index     =            2
     lattice parameter (alat)  =       9.0000  a.u.
     unit-cell volume          =     182.2500 (a.u.)^3
     number of atoms/cell      =            2
     number of atomic types    =            1
     number of electrons       =         8.00
     number of Kohn-Sham states=            4
     kinetic-energy cutoff     =      17.0000  Ry
     charge density cutoff     =      68.0000  Ry
     convergence threshold     =      1.0E-06
     mixing beta               =       0.7000
     number of iterations used =            8  plain     mixing
     Exchange-correlation      =  SLA  PW   PBE  PBE ( 1  4  3  4 0)

     celldm(1)=   9.000000  celldm(2)=   0.000000  celldm(3)=   0.000000
     celldm(4)=   0.000000  celldm(5)=   0.000000  celldm(6)=   0.000000

     crystal axes: (cart. coord. in units of alat)
               a(1) = (  -0.500000   0.000000   0.500000 )  
               a(2) = (   0.000000   0.500000   0.500000 )  
               a(3) = (  -0.500000   0.500000   0.000000 )  

     reciprocal axes: (cart. coord. in units 2 pi/alat)
               b(1) = ( -1.000000 -1.000000  1.000000 )  
               b(2) = (  1.000000  1.000000  1.000000 )  
               b(3) = ( -1.000000  1.000000 -1.000000 )  


     PseudoPot. # 1 for Si read from file:
     ./Si.pbe-rrkj.UPF
     MD5 check sum: cf7ab5690cd9a85b22c4813f7e365554
     Pseudo is Norm-conserving, Zval =  4.0
     Generated by new atomic code, or converted to UPF format
     Using radial grid of  883 points,  3 beta functions with: 
                l(1) =   0
                l(2) =   0
                l(3) =   1

     atomic species   valence    mass     pseudopotential
        Si             4.00    28.08600     Si( 1.00)

     24 Sym. Ops. (no inversion) found
          (note: 24 additional sym.ops. were found but ignored
           their fractional translations are incommensurate with FFT grid)


   Cartesian axes

     site n.     atom                  positions (alat units)
         1           Si  tau(   1) = (   0.0000000   0.0000000   0.0000000  )
         2           Si  tau(   2) = (   0.2500000   0.2500000   0.2500000  )

     number of k points=    19
                       cart. coord. in units 2pi/alat
        k(    1) = (  -0.1000000   0.1000000   0.1000000), wk =   0.0320000
        k(    2) = (  -0.3000000   0.3000000  -0.1000000), wk =   0.0960000
        k(    3) = (   0.5000000  -0.5000000   0.7000000), wk =   0.0960000
        k(    4) = (   0.3000000  -0.3000000   0.5000000), wk =   0.0960000
        k(    5) = (   0.1000000  -0.1000000   0.3000000), wk =   0.0960000
        k(    6) = (  -0.1000000   0.5000000   0.1000000), wk =   0.0960000
        k(    7) = (   0.7000000  -0.3000000   0.9000000), wk =   0.1920000
        k(    8) = (   0.5000000  -0.1000000   0.7000000), wk =   0.1920000
        k(    9) = (   0.3000000   0.1000000   0.5000000), wk =   0.1920000
        k(   10) = (  -0.1000000  -1.1000000   0.1000000), wk =   0.0960000
        k(   11) = (  -0.3000000  -0.9000000  -0.1000000), wk =   0.1920000
        k(   12) = (  -0.5000000  -0.7000000  -0.3000000), wk =   0.0960000
        k(   13) = (  -0.1000000  -0.7000000   0.1000000), wk =   0.0960000
        k(   14) = (  -0.3000000   0.3000000   0.3000000), wk =   0.0320000
        k(   15) = (   0.5000000  -0.5000000   1.1000000), wk =   0.0960000
        k(   16) = (   0.3000000  -0.3000000   0.9000000), wk =   0.0960000
        k(   17) = (  -0.3000000  -1.3000000   0.3000000), wk =   0.0960000
        k(   18) = (  -0.5000000  -1.1000000   0.1000000), wk =   0.0960000
        k(   19) = (   0.5000000  -0.5000000  -0.5000000), wk =   0.0160000

     Dense  grid:     1759 G-vectors     FFT dimensions: (  18,  18,  18)

     Largest allocated arrays     est. size (Mb)     dimensions
        Kohn-Sham Wavefunctions         0.01 Mb     (     228,    4)
        NL pseudopotentials             0.03 Mb     (     228,   10)
        Each V/rho on FFT grid          0.09 Mb     (    5832)
        Each G-vector array             0.01 Mb     (    1759)
        G-vector shells                 0.00 Mb     (      48)
     Largest temporary arrays     est. size (Mb)     dimensions
        Auxiliary wavefunctions         0.06 Mb     (     228,   16)
        Each subspace H/S matrix        0.00 Mb     (      16,   16)
        Each <psi_i|beta_j> matrix      0.00 Mb     (      10,    4)
        Arrays for rho mixing           0.71 Mb     (    5832,    8)

     Initial potential from superposition of free atoms

     starting charge    7.99889, renormalised to    8.00000
     Starting wfc are    8 randomized atomic wfcs

     total cpu time spent up to now is        0.5 secs

     per-process dynamical memory:     5.4 Mb

     Self-consistent Calculation

     iteration #  1     ecut=    17.00 Ry     beta=0.70
     Davidson diagonalization with overlap
     ethr =  1.00E-02,  avg # of iterations =  2.0

     total cpu time spent up to now is        0.7 secs

     total energy              =     -15.53703742 Ry
     Harris-Foulkes estimate   =     -15.57187921 Ry
     estimated scf accuracy    <       0.10371413 Ry

     iteration #  2     ecut=    17.00 Ry     beta=0.70
     Davidson diagonalization with overlap
     ethr =  1.30E-03,  avg # of iterations =  1.8

     total cpu time spent up to now is        1.0 secs

     total energy              =     -15.54660952 Ry
     Harris-Foulkes estimate   =     -15.54621810 Ry
     estimated scf accuracy    <       0.00258594 Ry

     iteration #  3     ecut=    17.00 Ry     beta=0.70
     Davidson diagonalization with overlap
     ethr =  3.23E-05,  avg # of iterations =  2.6

     total cpu time spent up to now is        1.2 secs

     total energy              =     -15.54748402 Ry
     Harris-Foulkes estimate   =     -15.54749699 Ry
     estimated scf accuracy    <       0.00009988 Ry

     iteration #  4     ecut=    17.00 Ry     beta=0.70
     Davidson diagonalization with overlap
     ethr =  1.25E-06,  avg # of iterations =  2.1

     total cpu time spent up to now is        1.4 secs

     total energy              =     -15.54750183 Ry
     Harris-Foulkes estimate   =     -15.54750352 Ry
     estimated scf accuracy    <       0.00000651 Ry

     iteration #  5     ecut=    17.00 Ry     beta=0.70
     Davidson diagonalization with overlap
     ethr =  8.13E-08,  avg # of iterations =  2.2

     total cpu time spent up to now is        1.6 secs

     End of self-consistent calculation

          k =-0.1000 0.1000 0.1000 (   214 PWs)   bands (ev):

    -3.7518   9.7563  10.8410  10.8410

          k =-0.3000 0.3000-0.1000 (   210 PWs)   bands (ev):

    -2.8033   6.6933   8.6776  10.5487

          k = 0.5000-0.5000 0.7000 (   219 PWs)   bands (ev):

    -0.6811   2.5694   8.4184   9.5052

          k = 0.3000-0.3000 0.5000 (   218 PWs)   bands (ev):

    -1.4526   3.7525   9.0853   9.0905

          k = 0.1000-0.1000 0.3000 (   209 PWs)   bands (ev):

    -3.2737   8.2535   9.6406  10.1838

          k =-0.1000 0.5000 0.1000 (   217 PWs)   bands (ev):

    -2.3277   6.8064   8.4877   8.5013

          k = 0.7000-0.3000 0.9000 (   216 PWs)   bands (ev):

    -0.5268   4.2506   6.3328   7.5742

          k = 0.5000-0.1000 0.7000 (   218 PWs)   bands (ev):

     0.2143   3.2411   5.5203   7.8877

          k = 0.3000 0.1000 0.5000 (   213 PWs)   bands (ev):

    -1.8760   5.3579   7.4717   9.3246

          k =-0.1000-1.1000 0.1000 (   219 PWs)   bands (ev):

     0.8559   2.9552   6.3432   7.2826

          k =-0.3000-0.9000-0.1000 (   213 PWs)   bands (ev):

     1.1460   2.9613   5.2860   6.7597

          k =-0.5000-0.7000-0.3000 (   220 PWs)   bands (ev):

     0.0702   2.2399   7.3148   8.4965

          k =-0.1000-0.7000 0.1000 (   214 PWs)   bands (ev):

    -0.9358   5.1033   6.9946   7.6956

          k =-0.3000 0.3000 0.3000 (   211 PWs)   bands (ev):

    -2.3450   5.0537   9.9278   9.9278

          k = 0.5000-0.5000 1.1000 (   214 PWs)   bands (ev):

    -0.9992   4.1084   6.3580   9.3582

          k = 0.3000-0.3000 0.9000 (   219 PWs)   bands (ev):

     0.9601   2.7511   4.9610   8.0385

          k =-0.3000-1.3000 0.3000 (   219 PWs)   bands (ev):

    -0.2121   2.9143   6.9864   8.4071

          k =-0.5000-1.1000 0.1000 (   214 PWs)   bands (ev):

     1.4018   2.8324   5.0269   6.2334

          k = 0.5000-0.5000-0.5000 (   228 PWs)   bands (ev):

    -0.3958   1.8545   9.6055   9.6055

     highest occupied level (ev):    10.8410

!    total energy              =     -15.54750282 Ry
     Harris-Foulkes estimate   =     -15.54750281 Ry
     estimated scf accuracy    <          4.1E-09 Ry

     The total energy is the sum of the following terms:

     one-electron contribution =       8.09920864 Ry
     hartree contribution      =       0.77794854 Ry
     xc contribution           =      -5.27160027 Ry
     ewald contribution        =     -19.15305973 Ry

     convergence has been achieved in   5 iterations

     Writing output data file Si_exc1.save

     init_run     :      0.22s CPU      0.35s WALL (       1 calls)
     electrons    :      0.86s CPU      1.04s WALL (       1 calls)

     Called by init_run:
     wfcinit      :      0.10s CPU      0.20s WALL (       1 calls)
     potinit      :      0.01s CPU      0.01s WALL (       1 calls)

     Called by electrons:
     c_bands      :      0.69s CPU      0.87s WALL (       5 calls)
     sum_band     :      0.13s CPU      0.13s WALL (       5 calls)
     v_of_rho     :      0.04s CPU      0.05s WALL (       6 calls)
     mix_rho      :      0.00s CPU      0.00s WALL (       5 calls)

     Called by c_bands:
     init_us_2    :      0.02s CPU      0.02s WALL (     209 calls)
     cegterg      :      0.68s CPU      0.85s WALL (      95 calls)

     Called by *egterg:
     h_psi        :      0.69s CPU      0.94s WALL (     318 calls)
     g_psi        :      0.00s CPU      0.00s WALL (     204 calls)
     cdiaghg      :      0.03s CPU      0.03s WALL (     299 calls)

     Called by h_psi:
     add_vuspsi   :      0.02s CPU      0.02s WALL (     318 calls)

     General routines
     calbec       :      0.02s CPU      0.02s WALL (     318 calls)
     fft          :      0.03s CPU      0.03s WALL (      65 calls)
     fftw         :      0.71s CPU      0.92s WALL (    2822 calls)
     davcio       :      0.00s CPU      0.00s WALL (      19 calls)

     Parallel routines
     fft_scatter  :      0.03s CPU      0.04s WALL (    2887 calls)

     PWSCF        :     1.49s CPU         2.08s WALL


   This run was terminated on:   2:18:26   3May2022            

=------------------------------------------------------------------------------=
   JOB DONE.
=------------------------------------------------------------------------------=
