
     Program PWSCF v.5.1 starts on  3May2022 at  2:20:49 

     This program is part of the open-source Quantum ESPRESSO suite
     for quantum simulation of materials; please cite
         "P. Giannozzi et al., J. Phys.:Condens. Matter 21 395502 (2009);
          URL http://www.quantum-espresso.org", 
     in publications or presentations arising from this work. More details at
     http://www.quantum-espresso.org/quote

     Parallel version (MPI), running on     1 processors
     Waiting for input...
     Reading input from standard input

     Current dimensions of program PWSCF are:
     Max number of different atomic species (ntypx) = 10
     Max number of k-points (npk) =  40000
     Max angular momentum in pseudopotentials (lmaxx) =  3

     Subspace diagonalization in iterative solution of the eigenvalue problem:
     a serial algorithm will be used


     G-vector sticks info
     --------------------
     sticks:   dense  smooth     PW     G-vecs:    dense   smooth      PW
     Sum         367     367    121                 4645     4645     941



     bravais-lattice index     =            2
     lattice parameter (alat)  =      12.5000  a.u.
     unit-cell volume          =     488.2812 (a.u.)^3
     number of atoms/cell      =            2
     number of atomic types    =            1
     number of electrons       =         8.00
     number of Kohn-Sham states=            4
     kinetic-energy cutoff     =      17.0000  Ry
     charge density cutoff     =      68.0000  Ry
     convergence threshold     =      1.0E-06
     mixing beta               =       0.7000
     number of iterations used =            8  plain     mixing
     Exchange-correlation      =  SLA  PW   PBE  PBE ( 1  4  3  4 0)

     celldm(1)=  12.500000  celldm(2)=   0.000000  celldm(3)=   0.000000
     celldm(4)=   0.000000  celldm(5)=   0.000000  celldm(6)=   0.000000

     crystal axes: (cart. coord. in units of alat)
               a(1) = (  -0.500000   0.000000   0.500000 )  
               a(2) = (   0.000000   0.500000   0.500000 )  
               a(3) = (  -0.500000   0.500000   0.000000 )  

     reciprocal axes: (cart. coord. in units 2 pi/alat)
               b(1) = ( -1.000000 -1.000000  1.000000 )  
               b(2) = (  1.000000  1.000000  1.000000 )  
               b(3) = ( -1.000000  1.000000 -1.000000 )  


     PseudoPot. # 1 for Si read from file:
     ./Si.pbe-rrkj.UPF
     MD5 check sum: cf7ab5690cd9a85b22c4813f7e365554
     Pseudo is Norm-conserving, Zval =  4.0
     Generated by new atomic code, or converted to UPF format
     Using radial grid of  883 points,  3 beta functions with: 
                l(1) =   0
                l(2) =   0
                l(3) =   1

     atomic species   valence    mass     pseudopotential
        Si             4.00    28.08600     Si( 1.00)

     48 Sym. Ops., with inversion, found (24 have fractional translation)



   Cartesian axes

     site n.     atom                  positions (alat units)
         1           Si  tau(   1) = (   0.0000000   0.0000000   0.0000000  )
         2           Si  tau(   2) = (   0.2500000   0.2500000   0.2500000  )

     number of k points=    19
                       cart. coord. in units 2pi/alat
        k(    1) = (  -0.1000000   0.1000000   0.1000000), wk =   0.0320000
        k(    2) = (  -0.3000000   0.3000000  -0.1000000), wk =   0.0960000
        k(    3) = (   0.5000000  -0.5000000   0.7000000), wk =   0.0960000
        k(    4) = (   0.3000000  -0.3000000   0.5000000), wk =   0.0960000
        k(    5) = (   0.1000000  -0.1000000   0.3000000), wk =   0.0960000
        k(    6) = (  -0.1000000   0.5000000   0.1000000), wk =   0.0960000
        k(    7) = (   0.7000000  -0.3000000   0.9000000), wk =   0.1920000
        k(    8) = (   0.5000000  -0.1000000   0.7000000), wk =   0.1920000
        k(    9) = (   0.3000000   0.1000000   0.5000000), wk =   0.1920000
        k(   10) = (  -0.1000000  -1.1000000   0.1000000), wk =   0.0960000
        k(   11) = (  -0.3000000  -0.9000000  -0.1000000), wk =   0.1920000
        k(   12) = (  -0.5000000  -0.7000000  -0.3000000), wk =   0.0960000
        k(   13) = (  -0.1000000  -0.7000000   0.1000000), wk =   0.0960000
        k(   14) = (  -0.3000000   0.3000000   0.3000000), wk =   0.0320000
        k(   15) = (   0.5000000  -0.5000000   1.1000000), wk =   0.0960000
        k(   16) = (   0.3000000  -0.3000000   0.9000000), wk =   0.0960000
        k(   17) = (  -0.3000000  -1.3000000   0.3000000), wk =   0.0960000
        k(   18) = (  -0.5000000  -1.1000000   0.1000000), wk =   0.0960000
        k(   19) = (   0.5000000  -0.5000000  -0.5000000), wk =   0.0160000

     Dense  grid:     4645 G-vectors     FFT dimensions: (  24,  24,  24)

     Largest allocated arrays     est. size (Mb)     dimensions
        Kohn-Sham Wavefunctions         0.04 Mb     (     588,    4)
        NL pseudopotentials             0.09 Mb     (     588,   10)
        Each V/rho on FFT grid          0.21 Mb     (   13824)
        Each G-vector array             0.04 Mb     (    4645)
        G-vector shells                 0.00 Mb     (      92)
     Largest temporary arrays     est. size (Mb)     dimensions
        Auxiliary wavefunctions         0.14 Mb     (     588,   16)
        Each subspace H/S matrix        0.00 Mb     (      16,   16)
        Each <psi_i|beta_j> matrix      0.00 Mb     (      10,    4)
        Arrays for rho mixing           1.69 Mb     (   13824,    8)

     Initial potential from superposition of free atoms

     starting charge    7.99889, renormalised to    8.00000
     Starting wfc are    8 randomized atomic wfcs

     total cpu time spent up to now is        0.6 secs

     per-process dynamical memory:     7.3 Mb

     Self-consistent Calculation

     iteration #  1     ecut=    17.00 Ry     beta=0.70
     Davidson diagonalization with overlap
     ethr =  1.00E-02,  avg # of iterations =  1.2

     Threshold (ethr) on eigenvalues was too large:
     Diagonalizing with lowered threshold

     Davidson diagonalization with overlap
     ethr =  2.09E-04,  avg # of iterations =  3.0

     total cpu time spent up to now is        1.3 secs

     total energy              =     -15.57680552 Ry
     Harris-Foulkes estimate   =     -15.57736882 Ry
     estimated scf accuracy    <       0.02094431 Ry

     iteration #  2     ecut=    17.00 Ry     beta=0.70
     Davidson diagonalization with overlap
     ethr =  2.62E-04,  avg # of iterations =  1.0

     total cpu time spent up to now is        1.5 secs

     total energy              =     -15.57684226 Ry
     Harris-Foulkes estimate   =     -15.57690671 Ry
     estimated scf accuracy    <       0.00180000 Ry

     iteration #  3     ecut=    17.00 Ry     beta=0.70
     Davidson diagonalization with overlap
     ethr =  2.25E-05,  avg # of iterations =  1.0

     total cpu time spent up to now is        1.8 secs

     total energy              =     -15.57686960 Ry
     Harris-Foulkes estimate   =     -15.57686884 Ry
     estimated scf accuracy    <       0.00000329 Ry

     iteration #  4     ecut=    17.00 Ry     beta=0.70
     Davidson diagonalization with overlap
     ethr =  4.12E-08,  avg # of iterations =  4.8

     total cpu time spent up to now is        2.2 secs

     End of self-consistent calculation

          k =-0.1000 0.1000 0.1000 (   573 PWs)   bands (ev):

    -7.2565  -0.8751   1.3848   1.3848

          k =-0.3000 0.3000-0.1000 (   572 PWs)   bands (ev):

    -6.8744  -2.2558   0.5183   1.1690

          k = 0.5000-0.5000 0.7000 (   577 PWs)   bands (ev):

    -6.1698  -3.7237   0.1568   0.7529

          k = 0.3000-0.3000 0.5000 (   588 PWs)   bands (ev):

    -6.3869  -3.3453   0.3612   0.6585

          k = 0.1000-0.1000 0.3000 (   569 PWs)   bands (ev):

    -7.0601  -1.6756   0.9521   0.9697

          k =-0.1000 0.5000 0.1000 (   578 PWs)   bands (ev):

    -6.6743  -2.6530   0.3876   0.5045

          k = 0.7000-0.3000 0.9000 (   576 PWs)   bands (ev):

    -5.9976  -3.8102  -0.3393   0.2076

          k = 0.5000-0.1000 0.7000 (   573 PWs)   bands (ev):

    -5.7935  -4.0892  -0.6199   0.2965

          k = 0.3000 0.1000 0.5000 (   579 PWs)   bands (ev):

    -6.5131  -3.0203   0.0252   0.7138

          k =-0.1000-1.1000 0.1000 (   588 PWs)   bands (ev):

    -5.4017  -4.5563  -0.2504  -0.0320

          k =-0.3000-0.9000-0.1000 (   576 PWs)   bands (ev):

    -5.3753  -4.5661  -0.5240  -0.0870

          k =-0.5000-0.7000-0.3000 (   584 PWs)   bands (ev):

    -5.9388  -3.9849  -0.2806   0.4835

          k =-0.1000-0.7000 0.1000 (   579 PWs)   bands (ev):

    -6.1135  -3.6317  -0.0316   0.1529

          k =-0.3000 0.3000 0.3000 (   577 PWs)   bands (ev):

    -6.7060  -2.7391   0.9561   0.9561

          k = 0.5000-0.5000 1.1000 (   577 PWs)   bands (ev):

    -6.2073  -3.5448  -0.3836   0.7311

          k = 0.3000-0.3000 0.9000 (   579 PWs)   bands (ev):

    -5.5567  -4.3710  -0.7026   0.2578

          k =-0.3000-1.3000 0.3000 (   580 PWs)   bands (ev):

    -5.9621  -3.9189  -0.3142   0.4015

          k =-0.5000-1.1000 0.1000 (   580 PWs)   bands (ev):

    -5.3583  -4.5734  -0.6307  -0.1694

          k = 0.5000-0.5000-0.5000 (   580 PWs)   bands (ev):

    -6.1454  -3.8252   0.7665   0.7665

     highest occupied level (ev):     1.3848

!    total energy              =     -15.57687942 Ry
     Harris-Foulkes estimate   =     -15.57687941 Ry
     estimated scf accuracy    <       0.00000005 Ry

     The total energy is the sum of the following terms:

     one-electron contribution =       0.81784907 Ry
     hartree contribution      =       1.69205263 Ry
     xc contribution           =      -4.29657809 Ry
     ewald contribution        =     -13.79020302 Ry

     convergence has been achieved in   4 iterations

     Writing output data file Si_exc1.save

     init_run     :      0.32s CPU      0.47s WALL (       1 calls)
     electrons    :      1.37s CPU      1.62s WALL (       1 calls)

     Called by init_run:
     wfcinit      :      0.17s CPU      0.29s WALL (       1 calls)
     potinit      :      0.02s CPU      0.02s WALL (       1 calls)

     Called by electrons:
     c_bands      :      1.10s CPU      1.28s WALL (       5 calls)
     sum_band     :      0.21s CPU      0.24s WALL (       5 calls)
     v_of_rho     :      0.07s CPU      0.08s WALL (       5 calls)
     mix_rho      :      0.00s CPU      0.00s WALL (       5 calls)

     Called by c_bands:
     init_us_2    :      0.05s CPU      0.06s WALL (     209 calls)
     cegterg      :      1.06s CPU      1.24s WALL (      95 calls)

     Called by *egterg:
     h_psi        :      1.05s CPU      1.29s WALL (     323 calls)
     g_psi        :      0.01s CPU      0.01s WALL (     209 calls)
     cdiaghg      :      0.03s CPU      0.04s WALL (     285 calls)

     Called by h_psi:
     add_vuspsi   :      0.04s CPU      0.05s WALL (     323 calls)

     General routines
     calbec       :      0.04s CPU      0.05s WALL (     323 calls)
     fft          :      0.04s CPU      0.05s WALL (      56 calls)
     fftw         :      1.01s CPU      1.22s WALL (    2800 calls)
     davcio       :      0.00s CPU      0.01s WALL (      19 calls)

     Parallel routines
     fft_scatter  :      0.07s CPU      0.10s WALL (    2856 calls)

     PWSCF        :     2.15s CPU         2.78s WALL


   This run was terminated on:   2:20:51   3May2022            

=------------------------------------------------------------------------------=
   JOB DONE.
=------------------------------------------------------------------------------=
