
     Program PWSCF v.5.1 starts on  3May2022 at  2:17:20 

     This program is part of the open-source Quantum ESPRESSO suite
     for quantum simulation of materials; please cite
         "P. Giannozzi et al., J. Phys.:Condens. Matter 21 395502 (2009);
          URL http://www.quantum-espresso.org", 
     in publications or presentations arising from this work. More details at
     http://www.quantum-espresso.org/quote

     Parallel version (MPI), running on     1 processors
     Waiting for input...
     Reading input from standard input

     Current dimensions of program PWSCF are:
     Max number of different atomic species (ntypx) = 10
     Max number of k-points (npk) =  40000
     Max angular momentum in pseudopotentials (lmaxx) =  3

     Subspace diagonalization in iterative solution of the eigenvalue problem:
     a serial algorithm will be used


     G-vector sticks info
     --------------------
     sticks:   dense  smooth     PW     G-vecs:    dense   smooth      PW
     Sum         127     127     55                  965      965     259



     bravais-lattice index     =            2
     lattice parameter (alat)  =       7.5000  a.u.
     unit-cell volume          =     105.4688 (a.u.)^3
     number of atoms/cell      =            2
     number of atomic types    =            1
     number of electrons       =         8.00
     number of Kohn-Sham states=            4
     kinetic-energy cutoff     =      17.0000  Ry
     charge density cutoff     =      68.0000  Ry
     convergence threshold     =      1.0E-06
     mixing beta               =       0.7000
     number of iterations used =            8  plain     mixing
     Exchange-correlation      =  SLA  PW   PBE  PBE ( 1  4  3  4 0)

     celldm(1)=   7.500000  celldm(2)=   0.000000  celldm(3)=   0.000000
     celldm(4)=   0.000000  celldm(5)=   0.000000  celldm(6)=   0.000000

     crystal axes: (cart. coord. in units of alat)
               a(1) = (  -0.500000   0.000000   0.500000 )  
               a(2) = (   0.000000   0.500000   0.500000 )  
               a(3) = (  -0.500000   0.500000   0.000000 )  

     reciprocal axes: (cart. coord. in units 2 pi/alat)
               b(1) = ( -1.000000 -1.000000  1.000000 )  
               b(2) = (  1.000000  1.000000  1.000000 )  
               b(3) = ( -1.000000  1.000000 -1.000000 )  


     PseudoPot. # 1 for Si read from file:
     ./Si.pbe-rrkj.UPF
     MD5 check sum: cf7ab5690cd9a85b22c4813f7e365554
     Pseudo is Norm-conserving, Zval =  4.0
     Generated by new atomic code, or converted to UPF format
     Using radial grid of  883 points,  3 beta functions with: 
                l(1) =   0
                l(2) =   0
                l(3) =   1

     atomic species   valence    mass     pseudopotential
        Si             4.00    28.08600     Si( 1.00)

     24 Sym. Ops. (no inversion) found
          (note: 24 additional sym.ops. were found but ignored
           their fractional translations are incommensurate with FFT grid)


   Cartesian axes

     site n.     atom                  positions (alat units)
         1           Si  tau(   1) = (   0.0000000   0.0000000   0.0000000  )
         2           Si  tau(   2) = (   0.2500000   0.2500000   0.2500000  )

     number of k points=    19
                       cart. coord. in units 2pi/alat
        k(    1) = (  -0.1000000   0.1000000   0.1000000), wk =   0.0320000
        k(    2) = (  -0.3000000   0.3000000  -0.1000000), wk =   0.0960000
        k(    3) = (   0.5000000  -0.5000000   0.7000000), wk =   0.0960000
        k(    4) = (   0.3000000  -0.3000000   0.5000000), wk =   0.0960000
        k(    5) = (   0.1000000  -0.1000000   0.3000000), wk =   0.0960000
        k(    6) = (  -0.1000000   0.5000000   0.1000000), wk =   0.0960000
        k(    7) = (   0.7000000  -0.3000000   0.9000000), wk =   0.1920000
        k(    8) = (   0.5000000  -0.1000000   0.7000000), wk =   0.1920000
        k(    9) = (   0.3000000   0.1000000   0.5000000), wk =   0.1920000
        k(   10) = (  -0.1000000  -1.1000000   0.1000000), wk =   0.0960000
        k(   11) = (  -0.3000000  -0.9000000  -0.1000000), wk =   0.1920000
        k(   12) = (  -0.5000000  -0.7000000  -0.3000000), wk =   0.0960000
        k(   13) = (  -0.1000000  -0.7000000   0.1000000), wk =   0.0960000
        k(   14) = (  -0.3000000   0.3000000   0.3000000), wk =   0.0320000
        k(   15) = (   0.5000000  -0.5000000   1.1000000), wk =   0.0960000
        k(   16) = (   0.3000000  -0.3000000   0.9000000), wk =   0.0960000
        k(   17) = (  -0.3000000  -1.3000000   0.3000000), wk =   0.0960000
        k(   18) = (  -0.5000000  -1.1000000   0.1000000), wk =   0.0960000
        k(   19) = (   0.5000000  -0.5000000  -0.5000000), wk =   0.0160000

     Dense  grid:      965 G-vectors     FFT dimensions: (  15,  15,  15)

     Largest allocated arrays     est. size (Mb)     dimensions
        Kohn-Sham Wavefunctions         0.01 Mb     (     131,    4)
        NL pseudopotentials             0.02 Mb     (     131,   10)
        Each V/rho on FFT grid          0.05 Mb     (    3375)
        Each G-vector array             0.01 Mb     (     965)
        G-vector shells                 0.00 Mb     (      34)
     Largest temporary arrays     est. size (Mb)     dimensions
        Auxiliary wavefunctions         0.03 Mb     (     131,   16)
        Each subspace H/S matrix        0.00 Mb     (      16,   16)
        Each <psi_i|beta_j> matrix      0.00 Mb     (      10,    4)
        Arrays for rho mixing           0.41 Mb     (    3375,    8)

     Initial potential from superposition of free atoms

     starting charge    7.99889, renormalised to    8.00000
     Starting wfc are    8 randomized atomic wfcs

     total cpu time spent up to now is        0.3 secs

     per-process dynamical memory:     4.6 Mb

     Self-consistent Calculation

     iteration #  1     ecut=    17.00 Ry     beta=0.70
     Davidson diagonalization with overlap
     ethr =  1.00E-02,  avg # of iterations =  2.1

     total cpu time spent up to now is        0.5 secs

     total energy              =     -14.31712909 Ry
     Harris-Foulkes estimate   =     -14.36634183 Ry
     estimated scf accuracy    <       0.14567812 Ry

     iteration #  2     ecut=    17.00 Ry     beta=0.70
     Davidson diagonalization with overlap
     ethr =  1.82E-03,  avg # of iterations =  2.1

     total cpu time spent up to now is        0.6 secs

     total energy              =     -14.33712267 Ry
     Harris-Foulkes estimate   =     -14.33551631 Ry
     estimated scf accuracy    <       0.00244789 Ry

     iteration #  3     ecut=    17.00 Ry     beta=0.70
     Davidson diagonalization with overlap
     ethr =  3.06E-05,  avg # of iterations =  3.4

     total cpu time spent up to now is        0.7 secs

     total energy              =     -14.33902801 Ry
     Harris-Foulkes estimate   =     -14.33897103 Ry
     estimated scf accuracy    <       0.00016144 Ry

     iteration #  4     ecut=    17.00 Ry     beta=0.70
     Davidson diagonalization with overlap
     ethr =  2.02E-06,  avg # of iterations =  1.9

     total cpu time spent up to now is        0.8 secs

     total energy              =     -14.33904764 Ry
     Harris-Foulkes estimate   =     -14.33904853 Ry
     estimated scf accuracy    <       0.00000467 Ry

     iteration #  5     ecut=    17.00 Ry     beta=0.70
     Davidson diagonalization with overlap
     ethr =  5.83E-08,  avg # of iterations =  3.1

     total cpu time spent up to now is        0.8 secs

     End of self-consistent calculation

          k =-0.1000 0.1000 0.1000 (   128 PWs)   bands (ev):

     0.3654  19.0815  20.7093  20.7093

          k =-0.3000 0.3000-0.1000 (   131 PWs)   bands (ev):

     1.7804  14.8348  17.5416  20.7804

          k = 0.5000-0.5000 0.7000 (   126 PWs)   bands (ev):

     5.2098   8.6526  17.5051  19.1555

          k = 0.3000-0.3000 0.5000 (   128 PWs)   bands (ev):

     3.8622  10.5670  18.2539  18.8206

          k = 0.1000-0.1000 0.3000 (   131 PWs)   bands (ev):

     1.0755  17.0375  18.8199  20.2973

          k =-0.1000 0.5000 0.1000 (   128 PWs)   bands (ev):

     2.4819  15.3271  17.1976  17.9642

          k = 0.7000-0.3000 0.9000 (   124 PWs)   bands (ev):

     5.2332  11.7994  14.5129  15.2564

          k = 0.5000-0.1000 0.7000 (   121 PWs)   bands (ev):

     6.5592   9.9469  13.0544  16.0617

          k = 0.3000 0.1000 0.5000 (   127 PWs)   bands (ev):

     3.1762  13.0460  15.9139  18.7045

          k =-0.1000-1.1000 0.1000 (   119 PWs)   bands (ev):

     7.2555  10.4986  13.6720  15.5271

          k =-0.3000-0.9000-0.1000 (   124 PWs)   bands (ev):

     7.8956  10.8190  11.5976  14.2788

          k =-0.5000-0.7000-0.3000 (   122 PWs)   bands (ev):

     6.8757   7.6849  16.1902  16.9034

          k =-0.1000-0.7000 0.1000 (   126 PWs)   bands (ev):

     4.5567  13.8457  14.6041  16.0864

          k =-0.3000 0.3000 0.3000 (   126 PWs)   bands (ev):

     2.4796  12.4425  19.6745  19.6745

          k = 0.5000-0.5000 1.1000 (   129 PWs)   bands (ev):

     4.5485  11.2016  14.2575  18.7521

          k = 0.3000-0.3000 0.9000 (   123 PWs)   bands (ev):

     8.2048   8.9765  11.8640  16.6441

          k =-0.3000-1.3000 0.3000 (   123 PWs)   bands (ev):

     5.8904   9.2990  15.4381  17.1914

          k =-0.5000-1.1000 0.1000 (   116 PWs)   bands (ev):

     8.8577   9.6098  12.1441  12.8909

          k = 0.5000-0.5000-0.5000 (   120 PWs)   bands (ev):

     6.1981   7.0294  19.5168  19.5168

     highest occupied level (ev):    20.7804

!    total energy              =     -14.33904926 Ry
     Harris-Foulkes estimate   =     -14.33904938 Ry
     estimated scf accuracy    <       0.00000022 Ry

     The total energy is the sum of the following terms:

     one-electron contribution =      14.30392803 Ry
     hartree contribution      =       0.38996228 Ry
     xc contribution           =      -6.04926789 Ry
     ewald contribution        =     -22.98367169 Ry

     convergence has been achieved in   5 iterations

     Writing output data file Si_exc1.save

     init_run     :      0.13s CPU      0.22s WALL (       1 calls)
     electrons    :      0.25s CPU      0.50s WALL (       1 calls)

     Called by init_run:
     wfcinit      :      0.03s CPU      0.04s WALL (       1 calls)
     potinit      :      0.00s CPU      0.00s WALL (       1 calls)

     Called by electrons:
     c_bands      :      0.21s CPU      0.43s WALL (       5 calls)
     sum_band     :      0.02s CPU      0.04s WALL (       5 calls)
     v_of_rho     :      0.02s CPU      0.02s WALL (       6 calls)
     mix_rho      :      0.00s CPU      0.01s WALL (       5 calls)

     Called by c_bands:
     init_us_2    :      0.01s CPU      0.02s WALL (     209 calls)
     cegterg      :      0.20s CPU      0.41s WALL (      95 calls)

     Called by *egterg:
     h_psi        :      0.15s CPU      0.31s WALL (     353 calls)
     g_psi        :      0.00s CPU      0.02s WALL (     239 calls)
     cdiaghg      :      0.03s CPU      0.05s WALL (     334 calls)

     Called by h_psi:
     add_vuspsi   :      0.01s CPU      0.04s WALL (     353 calls)

     General routines
     calbec       :      0.01s CPU      0.05s WALL (     353 calls)
     fft          :      0.00s CPU      0.00s WALL (      65 calls)
     fftw         :      0.11s CPU      0.19s WALL (    2956 calls)
     davcio       :      0.00s CPU      0.00s WALL (      19 calls)

     Parallel routines
     fft_scatter  :      0.02s CPU      0.06s WALL (    3021 calls)

     PWSCF        :     0.79s CPU         1.30s WALL


   This run was terminated on:   2:17:21   3May2022            

=------------------------------------------------------------------------------=
   JOB DONE.
=------------------------------------------------------------------------------=
