
     Program PWSCF v.5.1 starts on  3May2022 at  2:17:42 

     This program is part of the open-source Quantum ESPRESSO suite
     for quantum simulation of materials; please cite
         "P. Giannozzi et al., J. Phys.:Condens. Matter 21 395502 (2009);
          URL http://www.quantum-espresso.org", 
     in publications or presentations arising from this work. More details at
     http://www.quantum-espresso.org/quote

     Parallel version (MPI), running on     1 processors
     Waiting for input...
     Reading input from standard input

     Current dimensions of program PWSCF are:
     Max number of different atomic species (ntypx) = 10
     Max number of k-points (npk) =  40000
     Max angular momentum in pseudopotentials (lmaxx) =  3

     Subspace diagonalization in iterative solution of the eigenvalue problem:
     a serial algorithm will be used


     G-vector sticks info
     --------------------
     sticks:   dense  smooth     PW     G-vecs:    dense   smooth      PW
     Sum         151     151     61                 1243     1243     307



     bravais-lattice index     =            2
     lattice parameter (alat)  =       8.0000  a.u.
     unit-cell volume          =     128.0000 (a.u.)^3
     number of atoms/cell      =            2
     number of atomic types    =            1
     number of electrons       =         8.00
     number of Kohn-Sham states=            4
     kinetic-energy cutoff     =      17.0000  Ry
     charge density cutoff     =      68.0000  Ry
     convergence threshold     =      1.0E-06
     mixing beta               =       0.7000
     number of iterations used =            8  plain     mixing
     Exchange-correlation      =  SLA  PW   PBE  PBE ( 1  4  3  4 0)

     celldm(1)=   8.000000  celldm(2)=   0.000000  celldm(3)=   0.000000
     celldm(4)=   0.000000  celldm(5)=   0.000000  celldm(6)=   0.000000

     crystal axes: (cart. coord. in units of alat)
               a(1) = (  -0.500000   0.000000   0.500000 )  
               a(2) = (   0.000000   0.500000   0.500000 )  
               a(3) = (  -0.500000   0.500000   0.000000 )  

     reciprocal axes: (cart. coord. in units 2 pi/alat)
               b(1) = ( -1.000000 -1.000000  1.000000 )  
               b(2) = (  1.000000  1.000000  1.000000 )  
               b(3) = ( -1.000000  1.000000 -1.000000 )  


     PseudoPot. # 1 for Si read from file:
     ./Si.pbe-rrkj.UPF
     MD5 check sum: cf7ab5690cd9a85b22c4813f7e365554
     Pseudo is Norm-conserving, Zval =  4.0
     Generated by new atomic code, or converted to UPF format
     Using radial grid of  883 points,  3 beta functions with: 
                l(1) =   0
                l(2) =   0
                l(3) =   1

     atomic species   valence    mass     pseudopotential
        Si             4.00    28.08600     Si( 1.00)

     24 Sym. Ops. (no inversion) found
          (note: 24 additional sym.ops. were found but ignored
           their fractional translations are incommensurate with FFT grid)


   Cartesian axes

     site n.     atom                  positions (alat units)
         1           Si  tau(   1) = (   0.0000000   0.0000000   0.0000000  )
         2           Si  tau(   2) = (   0.2500000   0.2500000   0.2500000  )

     number of k points=    19
                       cart. coord. in units 2pi/alat
        k(    1) = (  -0.1000000   0.1000000   0.1000000), wk =   0.0320000
        k(    2) = (  -0.3000000   0.3000000  -0.1000000), wk =   0.0960000
        k(    3) = (   0.5000000  -0.5000000   0.7000000), wk =   0.0960000
        k(    4) = (   0.3000000  -0.3000000   0.5000000), wk =   0.0960000
        k(    5) = (   0.1000000  -0.1000000   0.3000000), wk =   0.0960000
        k(    6) = (  -0.1000000   0.5000000   0.1000000), wk =   0.0960000
        k(    7) = (   0.7000000  -0.3000000   0.9000000), wk =   0.1920000
        k(    8) = (   0.5000000  -0.1000000   0.7000000), wk =   0.1920000
        k(    9) = (   0.3000000   0.1000000   0.5000000), wk =   0.1920000
        k(   10) = (  -0.1000000  -1.1000000   0.1000000), wk =   0.0960000
        k(   11) = (  -0.3000000  -0.9000000  -0.1000000), wk =   0.1920000
        k(   12) = (  -0.5000000  -0.7000000  -0.3000000), wk =   0.0960000
        k(   13) = (  -0.1000000  -0.7000000   0.1000000), wk =   0.0960000
        k(   14) = (  -0.3000000   0.3000000   0.3000000), wk =   0.0320000
        k(   15) = (   0.5000000  -0.5000000   1.1000000), wk =   0.0960000
        k(   16) = (   0.3000000  -0.3000000   0.9000000), wk =   0.0960000
        k(   17) = (  -0.3000000  -1.3000000   0.3000000), wk =   0.0960000
        k(   18) = (  -0.5000000  -1.1000000   0.1000000), wk =   0.0960000
        k(   19) = (   0.5000000  -0.5000000  -0.5000000), wk =   0.0160000

     Dense  grid:     1243 G-vectors     FFT dimensions: (  15,  15,  15)

     Largest allocated arrays     est. size (Mb)     dimensions
        Kohn-Sham Wavefunctions         0.01 Mb     (     156,    4)
        NL pseudopotentials             0.02 Mb     (     156,   10)
        Each V/rho on FFT grid          0.05 Mb     (    3375)
        Each G-vector array             0.01 Mb     (    1243)
        G-vector shells                 0.00 Mb     (      39)
     Largest temporary arrays     est. size (Mb)     dimensions
        Auxiliary wavefunctions         0.04 Mb     (     156,   16)
        Each subspace H/S matrix        0.00 Mb     (      16,   16)
        Each <psi_i|beta_j> matrix      0.00 Mb     (      10,    4)
        Arrays for rho mixing           0.41 Mb     (    3375,    8)

     Initial potential from superposition of free atoms

     starting charge    7.99889, renormalised to    8.00000
     Starting wfc are    8 randomized atomic wfcs

     total cpu time spent up to now is        0.6 secs

     per-process dynamical memory:     4.9 Mb

     Self-consistent Calculation

     iteration #  1     ecut=    17.00 Ry     beta=0.70
     Davidson diagonalization with overlap
     ethr =  1.00E-02,  avg # of iterations =  2.0

     total cpu time spent up to now is        0.7 secs

     total energy              =     -14.92073392 Ry
     Harris-Foulkes estimate   =     -14.97059823 Ry
     estimated scf accuracy    <       0.14073519 Ry

     iteration #  2     ecut=    17.00 Ry     beta=0.70
     Davidson diagonalization with overlap
     ethr =  1.76E-03,  avg # of iterations =  1.9

     total cpu time spent up to now is        0.9 secs

     total energy              =     -14.93640323 Ry
     Harris-Foulkes estimate   =     -14.93535241 Ry
     estimated scf accuracy    <       0.00262079 Ry

     iteration #  3     ecut=    17.00 Ry     beta=0.70
     Davidson diagonalization with overlap
     ethr =  3.28E-05,  avg # of iterations =  3.2

     total cpu time spent up to now is        1.0 secs

     total energy              =     -14.93805393 Ry
     Harris-Foulkes estimate   =     -14.93806458 Ry
     estimated scf accuracy    <       0.00015131 Ry

     iteration #  4     ecut=    17.00 Ry     beta=0.70
     Davidson diagonalization with overlap
     ethr =  1.89E-06,  avg # of iterations =  2.1

     total cpu time spent up to now is        1.1 secs

     total energy              =     -14.93807557 Ry
     Harris-Foulkes estimate   =     -14.93807893 Ry
     estimated scf accuracy    <       0.00001201 Ry

     iteration #  5     ecut=    17.00 Ry     beta=0.70
     Davidson diagonalization with overlap
     ethr =  1.50E-07,  avg # of iterations =  2.2

     total cpu time spent up to now is        1.1 secs

     End of self-consistent calculation

          k =-0.1000 0.1000 0.1000 (   153 PWs)   bands (ev):

    -1.3843  15.3050  16.7085  16.7085

          k =-0.3000 0.3000-0.1000 (   153 PWs)   bands (ev):

    -0.1473  11.5192  13.9185  16.5760

          k = 0.5000-0.5000 0.7000 (   152 PWs)   bands (ev):

     2.7925   6.1057  13.7865  15.1920

          k = 0.3000-0.3000 0.5000 (   148 PWs)   bands (ev):

     1.6610   7.7474  14.5043  14.8117

          k = 0.1000-0.1000 0.3000 (   155 PWs)   bands (ev):

    -0.7631  13.4740  15.0729  16.1610

          k =-0.1000 0.5000 0.1000 (   156 PWs)   bands (ev):

     0.4682  11.8905  13.6236  14.0319

          k = 0.7000-0.3000 0.9000 (   150 PWs)   bands (ev):

     2.8629   8.7517  11.0587  12.1499

          k = 0.5000-0.1000 0.7000 (   153 PWs)   bands (ev):

     3.9687   7.2092   9.9073  12.7043

          k = 0.3000 0.1000 0.5000 (   150 PWs)   bands (ev):

     1.0716   9.9141  12.4449  14.8692

          k =-0.1000-1.1000 0.1000 (   150 PWs)   bands (ev):

     4.6437   7.4492  10.6239  12.1129

          k =-0.3000-0.9000-0.1000 (   151 PWs)   bands (ev):

     5.1516   7.5747   9.0025  11.1607

          k =-0.5000-0.7000-0.3000 (   152 PWs)   bands (ev):

     4.0239   5.4750  12.5102  13.5099

          k =-0.1000-0.7000 0.1000 (   147 PWs)   bands (ev):

     2.2861  10.2754  11.5026  12.6217

          k =-0.3000 0.3000 0.3000 (   153 PWs)   bands (ev):

     0.4609   9.4051  15.6812  15.6812

          k = 0.5000-0.5000 1.1000 (   150 PWs)   bands (ev):

     2.2589   8.2963  10.9944  14.9082

          k = 0.3000-0.3000 0.9000 (   152 PWs)   bands (ev):

     5.1833   6.5333   8.9411  13.0992

          k =-0.3000-1.3000 0.3000 (   153 PWs)   bands (ev):

     3.3926   6.6523  11.9654  13.5828

          k =-0.5000-1.1000 0.1000 (   152 PWs)   bands (ev):

     5.7518   6.9992   9.0210  10.1809

          k = 0.5000-0.5000-0.5000 (   156 PWs)   bands (ev):

     3.4272   4.9090  15.4156  15.4156

     highest occupied level (ev):    16.7085

!    total energy              =     -14.93807748 Ry
     Harris-Foulkes estimate   =     -14.93807747 Ry
     estimated scf accuracy    <       0.00000002 Ry

     The total energy is the sum of the following terms:

     one-electron contribution =      11.84330524 Ry
     hartree contribution      =       0.52202407 Ry
     xc contribution           =      -5.75621459 Ry
     ewald contribution        =     -21.54719219 Ry

     convergence has been achieved in   5 iterations

     Writing output data file Si_exc1.save

     init_run     :      0.13s CPU      0.38s WALL (       1 calls)
     electrons    :      0.26s CPU      0.50s WALL (       1 calls)

     Called by init_run:
     wfcinit      :      0.03s CPU      0.08s WALL (       1 calls)
     potinit      :      0.01s CPU      0.02s WALL (       1 calls)

     Called by electrons:
     c_bands      :      0.21s CPU      0.40s WALL (       5 calls)
     sum_band     :      0.03s CPU      0.05s WALL (       5 calls)
     v_of_rho     :      0.02s CPU      0.03s WALL (       6 calls)
     mix_rho      :      0.00s CPU      0.00s WALL (       5 calls)

     Called by c_bands:
     init_us_2    :      0.01s CPU      0.03s WALL (     209 calls)
     cegterg      :      0.20s CPU      0.37s WALL (      95 calls)

     Called by *egterg:
     h_psi        :      0.15s CPU      0.31s WALL (     329 calls)
     g_psi        :      0.00s CPU      0.00s WALL (     215 calls)
     cdiaghg      :      0.03s CPU      0.03s WALL (     310 calls)

     Called by h_psi:
     add_vuspsi   :      0.01s CPU      0.01s WALL (     329 calls)

     General routines
     calbec       :      0.01s CPU      0.03s WALL (     329 calls)
     fft          :      0.00s CPU      0.01s WALL (      65 calls)
     fftw         :      0.11s CPU      0.24s WALL (    2884 calls)
     davcio       :      0.00s CPU      0.00s WALL (      19 calls)

     Parallel routines
     fft_scatter  :      0.02s CPU      0.07s WALL (    2949 calls)

     PWSCF        :     0.80s CPU         1.59s WALL


   This run was terminated on:   2:17:43   3May2022            

=------------------------------------------------------------------------------=
   JOB DONE.
=------------------------------------------------------------------------------=
