
     Program PWSCF v.5.1 starts on  3May2022 at  2:22:14 

     This program is part of the open-source Quantum ESPRESSO suite
     for quantum simulation of materials; please cite
         "P. Giannozzi et al., J. Phys.:Condens. Matter 21 395502 (2009);
          URL http://www.quantum-espresso.org", 
     in publications or presentations arising from this work. More details at
     http://www.quantum-espresso.org/quote

     Parallel version (MPI), running on     1 processors
     Waiting for input...
     Reading input from standard input

     Current dimensions of program PWSCF are:
     Max number of different atomic species (ntypx) = 10
     Max number of k-points (npk) =  40000
     Max angular momentum in pseudopotentials (lmaxx) =  3

     Subspace diagonalization in iterative solution of the eigenvalue problem:
     a serial algorithm will be used


     G-vector sticks info
     --------------------
     sticks:   dense  smooth     PW     G-vecs:    dense   smooth      PW
     Sum         397     397    127                 5161     5161     965



     bravais-lattice index     =            2
     lattice parameter (alat)  =      13.0000  a.u.
     unit-cell volume          =     549.2500 (a.u.)^3
     number of atoms/cell      =            2
     number of atomic types    =            1
     number of electrons       =         8.00
     number of Kohn-Sham states=            4
     kinetic-energy cutoff     =      17.0000  Ry
     charge density cutoff     =      68.0000  Ry
     convergence threshold     =      1.0E-06
     mixing beta               =       0.7000
     number of iterations used =            8  plain     mixing
     Exchange-correlation      =  SLA  PW   PBE  PBE ( 1  4  3  4 0)

     celldm(1)=  13.000000  celldm(2)=   0.000000  celldm(3)=   0.000000
     celldm(4)=   0.000000  celldm(5)=   0.000000  celldm(6)=   0.000000

     crystal axes: (cart. coord. in units of alat)
               a(1) = (  -0.500000   0.000000   0.500000 )  
               a(2) = (   0.000000   0.500000   0.500000 )  
               a(3) = (  -0.500000   0.500000   0.000000 )  

     reciprocal axes: (cart. coord. in units 2 pi/alat)
               b(1) = ( -1.000000 -1.000000  1.000000 )  
               b(2) = (  1.000000  1.000000  1.000000 )  
               b(3) = ( -1.000000  1.000000 -1.000000 )  


     PseudoPot. # 1 for Si read from file:
     ./Si.pbe-rrkj.UPF
     MD5 check sum: cf7ab5690cd9a85b22c4813f7e365554
     Pseudo is Norm-conserving, Zval =  4.0
     Generated by new atomic code, or converted to UPF format
     Using radial grid of  883 points,  3 beta functions with: 
                l(1) =   0
                l(2) =   0
                l(3) =   1

     atomic species   valence    mass     pseudopotential
        Si             4.00    28.08600     Si( 1.00)

     24 Sym. Ops. (no inversion) found
          (note: 24 additional sym.ops. were found but ignored
           their fractional translations are incommensurate with FFT grid)


   Cartesian axes

     site n.     atom                  positions (alat units)
         1           Si  tau(   1) = (   0.0000000   0.0000000   0.0000000  )
         2           Si  tau(   2) = (   0.2500000   0.2500000   0.2500000  )

     number of k points=    19
                       cart. coord. in units 2pi/alat
        k(    1) = (  -0.1000000   0.1000000   0.1000000), wk =   0.0320000
        k(    2) = (  -0.3000000   0.3000000  -0.1000000), wk =   0.0960000
        k(    3) = (   0.5000000  -0.5000000   0.7000000), wk =   0.0960000
        k(    4) = (   0.3000000  -0.3000000   0.5000000), wk =   0.0960000
        k(    5) = (   0.1000000  -0.1000000   0.3000000), wk =   0.0960000
        k(    6) = (  -0.1000000   0.5000000   0.1000000), wk =   0.0960000
        k(    7) = (   0.7000000  -0.3000000   0.9000000), wk =   0.1920000
        k(    8) = (   0.5000000  -0.1000000   0.7000000), wk =   0.1920000
        k(    9) = (   0.3000000   0.1000000   0.5000000), wk =   0.1920000
        k(   10) = (  -0.1000000  -1.1000000   0.1000000), wk =   0.0960000
        k(   11) = (  -0.3000000  -0.9000000  -0.1000000), wk =   0.1920000
        k(   12) = (  -0.5000000  -0.7000000  -0.3000000), wk =   0.0960000
        k(   13) = (  -0.1000000  -0.7000000   0.1000000), wk =   0.0960000
        k(   14) = (  -0.3000000   0.3000000   0.3000000), wk =   0.0320000
        k(   15) = (   0.5000000  -0.5000000   1.1000000), wk =   0.0960000
        k(   16) = (   0.3000000  -0.3000000   0.9000000), wk =   0.0960000
        k(   17) = (  -0.3000000  -1.3000000   0.3000000), wk =   0.0960000
        k(   18) = (  -0.5000000  -1.1000000   0.1000000), wk =   0.0960000
        k(   19) = (   0.5000000  -0.5000000  -0.5000000), wk =   0.0160000

     Dense  grid:     5161 G-vectors     FFT dimensions: (  25,  25,  25)

     Largest allocated arrays     est. size (Mb)     dimensions
        Kohn-Sham Wavefunctions         0.04 Mb     (     658,    4)
        NL pseudopotentials             0.10 Mb     (     658,   10)
        Each V/rho on FFT grid          0.24 Mb     (   15625)
        Each G-vector array             0.04 Mb     (    5161)
        G-vector shells                 0.00 Mb     (      99)
     Largest temporary arrays     est. size (Mb)     dimensions
        Auxiliary wavefunctions         0.16 Mb     (     658,   16)
        Each subspace H/S matrix        0.00 Mb     (      16,   16)
        Each <psi_i|beta_j> matrix      0.00 Mb     (      10,    4)
        Arrays for rho mixing           1.91 Mb     (   15625,    8)

     Initial potential from superposition of free atoms

     starting charge    7.99889, renormalised to    8.00000
     Starting wfc are    8 randomized atomic wfcs

     total cpu time spent up to now is        0.6 secs

     per-process dynamical memory:     7.7 Mb

     Self-consistent Calculation

     iteration #  1     ecut=    17.00 Ry     beta=0.70
     Davidson diagonalization with overlap
     ethr =  1.00E-02,  avg # of iterations =  1.1

     Threshold (ethr) on eigenvalues was too large:
     Diagonalizing with lowered threshold

     Davidson diagonalization with overlap
     ethr =  1.75E-04,  avg # of iterations =  3.0

     total cpu time spent up to now is        1.1 secs

     total energy              =     -15.52568944 Ry
     Harris-Foulkes estimate   =     -15.52555149 Ry
     estimated scf accuracy    <       0.01733856 Ry

     iteration #  2     ecut=    17.00 Ry     beta=0.70
     Davidson diagonalization with overlap
     ethr =  2.17E-04,  avg # of iterations =  1.0

     total cpu time spent up to now is        1.2 secs

     total energy              =     -15.52573918 Ry
     Harris-Foulkes estimate   =     -15.52576376 Ry
     estimated scf accuracy    <       0.00154707 Ry

     iteration #  3     ecut=    17.00 Ry     beta=0.70
     Davidson diagonalization with overlap
     ethr =  1.93E-05,  avg # of iterations =  1.0

     total cpu time spent up to now is        1.4 secs

     total energy              =     -15.52576441 Ry
     Harris-Foulkes estimate   =     -15.52576252 Ry
     estimated scf accuracy    <       0.00000105 Ry

     iteration #  4     ecut=    17.00 Ry     beta=0.70
     Davidson diagonalization with overlap
     ethr =  1.31E-08,  avg # of iterations =  6.5

     total cpu time spent up to now is        1.8 secs

     End of self-consistent calculation

          k =-0.1000 0.1000 0.1000 (   637 PWs)   bands (ev):

    -7.5110  -2.0876   0.7369   0.7369

          k =-0.3000 0.3000-0.1000 (   643 PWs)   bands (ev):

    -7.1766  -3.1517  -0.0206   0.5415

          k = 0.5000-0.5000 0.7000 (   647 PWs)   bands (ev):

    -6.5710  -4.3612  -0.3720   0.1751

          k = 0.3000-0.3000 0.5000 (   639 PWs)   bands (ev):

    -6.7550  -4.0470  -0.1947   0.0971

          k = 0.1000-0.1000 0.3000 (   649 PWs)   bands (ev):

    -7.3387  -2.6934   0.3518   0.3773

          k =-0.1000 0.5000 0.1000 (   650 PWs)   bands (ev):

    -7.0004  -3.5072  -0.1356  -0.0325

          k = 0.7000-0.3000 0.9000 (   654 PWs)   bands (ev):

    -6.4126  -4.4945  -0.7659  -0.2926

          k = 0.5000-0.1000 0.7000 (   658 PWs)   bands (ev):

    -6.2397  -4.7295  -1.0075  -0.2161

          k = 0.3000 0.1000 0.5000 (   644 PWs)   bands (ev):

    -6.8615  -3.8018  -0.4510   0.1427

          k =-0.1000-1.1000 0.1000 (   650 PWs)   bands (ev):

    -5.8885  -5.1515  -0.6916  -0.5101

          k =-0.3000-0.9000-0.1000 (   657 PWs)   bands (ev):

    -5.8707  -5.1590  -0.9206  -0.5488

          k =-0.5000-0.7000-0.3000 (   650 PWs)   bands (ev):

    -6.3710  -4.6067  -0.7389  -0.0551

          k =-0.1000-0.7000 0.1000 (   648 PWs)   bands (ev):

    -6.5098  -4.3487  -0.5004  -0.3449

          k =-0.3000 0.3000 0.3000 (   640 PWs)   bands (ev):

    -7.0310  -3.5293   0.3566   0.3566

          k = 0.5000-0.5000 1.1000 (   649 PWs)   bands (ev):

    -6.5978  -4.2477  -0.8059   0.1574

          k = 0.3000-0.3000 0.9000 (   655 PWs)   bands (ev):

    -6.0343  -4.9777  -1.0751  -0.2560

          k =-0.3000-1.3000 0.3000 (   653 PWs)   bands (ev):

    -6.3874  -4.5639  -0.7593  -0.1290

          k =-0.5000-1.1000 0.1000 (   656 PWs)   bands (ev):

    -5.8592  -5.1642  -1.0110  -0.6129

          k = 0.5000-0.5000-0.5000 (   652 PWs)   bands (ev):

    -6.5539  -4.4280   0.1864   0.1864

     highest occupied level (ev):     0.7369

!    total energy              =     -15.52577343 Ry
     Harris-Foulkes estimate   =     -15.52577336 Ry
     estimated scf accuracy    <       0.00000022 Ry

     The total energy is the sum of the following terms:

     one-electron contribution =       0.11894581 Ry
     hartree contribution      =       1.83774836 Ry
     xc contribution           =      -4.22265701 Ry
     ewald contribution        =     -13.25981060 Ry

     convergence has been achieved in   4 iterations

     Writing output data file Si_exc1.save

     init_run     :      0.26s CPU      0.48s WALL (       1 calls)
     electrons    :      0.99s CPU      1.21s WALL (       1 calls)

     Called by init_run:
     wfcinit      :      0.12s CPU      0.28s WALL (       1 calls)
     potinit      :      0.02s CPU      0.02s WALL (       1 calls)

     Called by electrons:
     c_bands      :      0.81s CPU      0.99s WALL (       5 calls)
     sum_band     :      0.11s CPU      0.13s WALL (       5 calls)
     v_of_rho     :      0.07s CPU      0.08s WALL (       5 calls)
     mix_rho      :      0.00s CPU      0.01s WALL (       5 calls)

     Called by c_bands:
     init_us_2    :      0.05s CPU      0.07s WALL (     209 calls)
     cegterg      :      0.76s CPU      0.95s WALL (      95 calls)

     Called by *egterg:
     h_psi        :      0.68s CPU      0.91s WALL (     354 calls)
     g_psi        :      0.01s CPU      0.01s WALL (     240 calls)
     cdiaghg      :      0.03s CPU      0.03s WALL (     316 calls)

     Called by h_psi:
     add_vuspsi   :      0.04s CPU      0.06s WALL (     354 calls)

     General routines
     calbec       :      0.05s CPU      0.06s WALL (     354 calls)
     fft          :      0.02s CPU      0.02s WALL (      56 calls)
     fftw         :      0.53s CPU      0.72s WALL (    2962 calls)
     davcio       :      0.00s CPU      0.00s WALL (      19 calls)

     Parallel routines
     fft_scatter  :      0.08s CPU      0.10s WALL (    3018 calls)

     PWSCF        :     1.65s CPU         2.25s WALL


   This run was terminated on:   2:22:17   3May2022            

=------------------------------------------------------------------------------=
   JOB DONE.
=------------------------------------------------------------------------------=
