
     Program PWSCF v.5.1 starts on  3May2022 at  2:19:44 

     This program is part of the open-source Quantum ESPRESSO suite
     for quantum simulation of materials; please cite
         "P. Giannozzi et al., J. Phys.:Condens. Matter 21 395502 (2009);
          URL http://www.quantum-espresso.org", 
     in publications or presentations arising from this work. More details at
     http://www.quantum-espresso.org/quote

     Parallel version (MPI), running on     1 processors
     Waiting for input...
     Reading input from standard input

     Current dimensions of program PWSCF are:
     Max number of different atomic species (ntypx) = 10
     Max number of k-points (npk) =  40000
     Max angular momentum in pseudopotentials (lmaxx) =  3

     Subspace diagonalization in iterative solution of the eigenvalue problem:
     a serial algorithm will be used


     G-vector sticks info
     --------------------
     sticks:   dense  smooth     PW     G-vecs:    dense   smooth      PW
     Sum         283     283     97                 3143     3143     645



     bravais-lattice index     =            2
     lattice parameter (alat)  =      11.0000  a.u.
     unit-cell volume          =     332.7500 (a.u.)^3
     number of atoms/cell      =            2
     number of atomic types    =            1
     number of electrons       =         8.00
     number of Kohn-Sham states=            4
     kinetic-energy cutoff     =      17.0000  Ry
     charge density cutoff     =      68.0000  Ry
     convergence threshold     =      1.0E-06
     mixing beta               =       0.7000
     number of iterations used =            8  plain     mixing
     Exchange-correlation      =  SLA  PW   PBE  PBE ( 1  4  3  4 0)

     celldm(1)=  11.000000  celldm(2)=   0.000000  celldm(3)=   0.000000
     celldm(4)=   0.000000  celldm(5)=   0.000000  celldm(6)=   0.000000

     crystal axes: (cart. coord. in units of alat)
               a(1) = (  -0.500000   0.000000   0.500000 )  
               a(2) = (   0.000000   0.500000   0.500000 )  
               a(3) = (  -0.500000   0.500000   0.000000 )  

     reciprocal axes: (cart. coord. in units 2 pi/alat)
               b(1) = ( -1.000000 -1.000000  1.000000 )  
               b(2) = (  1.000000  1.000000  1.000000 )  
               b(3) = ( -1.000000  1.000000 -1.000000 )  


     PseudoPot. # 1 for Si read from file:
     ./Si.pbe-rrkj.UPF
     MD5 check sum: cf7ab5690cd9a85b22c4813f7e365554
     Pseudo is Norm-conserving, Zval =  4.0
     Generated by new atomic code, or converted to UPF format
     Using radial grid of  883 points,  3 beta functions with: 
                l(1) =   0
                l(2) =   0
                l(3) =   1

     atomic species   valence    mass     pseudopotential
        Si             4.00    28.08600     Si( 1.00)

     48 Sym. Ops., with inversion, found (24 have fractional translation)



   Cartesian axes

     site n.     atom                  positions (alat units)
         1           Si  tau(   1) = (   0.0000000   0.0000000   0.0000000  )
         2           Si  tau(   2) = (   0.2500000   0.2500000   0.2500000  )

     number of k points=    19
                       cart. coord. in units 2pi/alat
        k(    1) = (  -0.1000000   0.1000000   0.1000000), wk =   0.0320000
        k(    2) = (  -0.3000000   0.3000000  -0.1000000), wk =   0.0960000
        k(    3) = (   0.5000000  -0.5000000   0.7000000), wk =   0.0960000
        k(    4) = (   0.3000000  -0.3000000   0.5000000), wk =   0.0960000
        k(    5) = (   0.1000000  -0.1000000   0.3000000), wk =   0.0960000
        k(    6) = (  -0.1000000   0.5000000   0.1000000), wk =   0.0960000
        k(    7) = (   0.7000000  -0.3000000   0.9000000), wk =   0.1920000
        k(    8) = (   0.5000000  -0.1000000   0.7000000), wk =   0.1920000
        k(    9) = (   0.3000000   0.1000000   0.5000000), wk =   0.1920000
        k(   10) = (  -0.1000000  -1.1000000   0.1000000), wk =   0.0960000
        k(   11) = (  -0.3000000  -0.9000000  -0.1000000), wk =   0.1920000
        k(   12) = (  -0.5000000  -0.7000000  -0.3000000), wk =   0.0960000
        k(   13) = (  -0.1000000  -0.7000000   0.1000000), wk =   0.0960000
        k(   14) = (  -0.3000000   0.3000000   0.3000000), wk =   0.0320000
        k(   15) = (   0.5000000  -0.5000000   1.1000000), wk =   0.0960000
        k(   16) = (   0.3000000  -0.3000000   0.9000000), wk =   0.0960000
        k(   17) = (  -0.3000000  -1.3000000   0.3000000), wk =   0.0960000
        k(   18) = (  -0.5000000  -1.1000000   0.1000000), wk =   0.0960000
        k(   19) = (   0.5000000  -0.5000000  -0.5000000), wk =   0.0160000

     Dense  grid:     3143 G-vectors     FFT dimensions: (  24,  24,  24)

     Largest allocated arrays     est. size (Mb)     dimensions
        Kohn-Sham Wavefunctions         0.02 Mb     (     399,    4)
        NL pseudopotentials             0.06 Mb     (     399,   10)
        Each V/rho on FFT grid          0.21 Mb     (   13824)
        Each G-vector array             0.02 Mb     (    3143)
        G-vector shells                 0.00 Mb     (      72)
     Largest temporary arrays     est. size (Mb)     dimensions
        Auxiliary wavefunctions         0.10 Mb     (     399,   16)
        Each subspace H/S matrix        0.00 Mb     (      16,   16)
        Each <psi_i|beta_j> matrix      0.00 Mb     (      10,    4)
        Arrays for rho mixing           1.69 Mb     (   13824,    8)

     Initial potential from superposition of free atoms

     starting charge    7.99889, renormalised to    8.00000
     Starting wfc are    8 randomized atomic wfcs

     total cpu time spent up to now is        1.0 secs

     per-process dynamical memory:     6.9 Mb

     Self-consistent Calculation

     iteration #  1     ecut=    17.00 Ry     beta=0.70
     Davidson diagonalization with overlap
     ethr =  1.00E-02,  avg # of iterations =  1.9

     Threshold (ethr) on eigenvalues was too large:
     Diagonalizing with lowered threshold

     Davidson diagonalization with overlap
     ethr =  4.59E-04,  avg # of iterations =  2.5

     total cpu time spent up to now is        1.7 secs

     total energy              =     -15.71504863 Ry
     Harris-Foulkes estimate   =     -15.72170482 Ry
     estimated scf accuracy    <       0.04051236 Ry

     iteration #  2     ecut=    17.00 Ry     beta=0.70
     Davidson diagonalization with overlap
     ethr =  5.06E-04,  avg # of iterations =  1.0

     total cpu time spent up to now is        1.9 secs

     total energy              =     -15.71587649 Ry
     Harris-Foulkes estimate   =     -15.71599163 Ry
     estimated scf accuracy    <       0.00255784 Ry

     iteration #  3     ecut=    17.00 Ry     beta=0.70
     Davidson diagonalization with overlap
     ethr =  3.20E-05,  avg # of iterations =  1.8

     total cpu time spent up to now is        2.1 secs

     total energy              =     -15.71609375 Ry
     Harris-Foulkes estimate   =     -15.71610589 Ry
     estimated scf accuracy    <       0.00003706 Ry

     iteration #  4     ecut=    17.00 Ry     beta=0.70
     Davidson diagonalization with overlap
     ethr =  4.63E-07,  avg # of iterations =  3.5

     total cpu time spent up to now is        2.5 secs

     End of self-consistent calculation

          k =-0.1000 0.1000 0.1000 (   384 PWs)   bands (ev):

    -6.2508   3.0517   4.0954   4.0954

          k =-0.3000 0.3000-0.1000 (   384 PWs)   bands (ev):

    -5.6865   0.8114   2.8058   3.8155

          k = 0.5000-0.5000 0.7000 (   393 PWs)   bands (ev):

    -4.5715  -1.5780   2.4515   3.2056

          k = 0.3000-0.3000 0.5000 (   392 PWs)   bands (ev):

    -4.9345  -0.9511   2.7778   3.0360

          k = 0.1000-0.1000 0.3000 (   380 PWs)   bands (ev):

    -5.9632   1.8049   3.4482   3.5162

          k =-0.1000 0.5000 0.1000 (   392 PWs)   bands (ev):

    -5.3964   0.4549   2.6120   2.7670

          k = 0.7000-0.3000 0.9000 (   399 PWs)   bands (ev):

    -4.3719  -1.2543   1.4766   2.3122

          k = 0.5000-0.1000 0.7000 (   396 PWs)   bands (ev):

    -4.0293  -1.7186   1.0310   2.4545

          k = 0.3000 0.1000 0.5000 (   392 PWs)   bands (ev):

    -5.1459  -0.2299   2.0654   3.1339

          k =-0.1000-1.1000 0.1000 (   398 PWs)   bands (ev):

    -3.5143  -2.2698   1.6122   2.0060

          k =-0.3000-0.9000-0.1000 (   393 PWs)   bands (ev):

    -3.4358  -2.2880   1.1324   1.8565

          k =-0.5000-0.7000-0.3000 (   390 PWs)   bands (ev):

    -4.2100  -1.8337   1.7471   2.7607

          k =-0.1000-0.7000 0.1000 (   395 PWs)   bands (ev):

    -4.5690  -0.9244   1.9494   2.2660

          k =-0.3000 0.3000 0.3000 (   395 PWs)   bands (ev):

    -5.4278  -0.0948   3.4881   3.4881

          k = 0.5000-0.5000 1.1000 (   393 PWs)   bands (ev):

    -4.6694  -1.0149   1.4337   3.1581

          k = 0.3000-0.3000 0.9000 (   392 PWs)   bands (ev):

    -3.6618  -2.0996   0.8629   2.4380

          k =-0.3000-1.3000 0.3000 (   393 PWs)   bands (ev):

    -4.2767  -1.6245   1.6359   2.6507

          k =-0.5000-1.1000 0.1000 (   396 PWs)   bands (ev):

    -3.3817  -2.3069   0.9587   1.6801

          k = 0.5000-0.5000-0.5000 (   392 PWs)   bands (ev):

    -4.5026  -1.8522   3.2363   3.2363

     highest occupied level (ev):     4.0954

!    total energy              =     -15.71612968 Ry
     Harris-Foulkes estimate   =     -15.71612970 Ry
     estimated scf accuracy    <       0.00000036 Ry

     The total energy is the sum of the following terms:

     one-electron contribution =       3.27672316 Ry
     hartree contribution      =       1.28202288 Ry
     xc contribution           =      -4.60419046 Ry
     ewald contribution        =     -15.67068525 Ry

     convergence has been achieved in   4 iterations

     Writing output data file Si_exc1.save

     init_run     :      0.30s CPU      0.77s WALL (       1 calls)
     electrons    :      1.21s CPU      1.53s WALL (       1 calls)

     Called by init_run:
     wfcinit      :      0.15s CPU      0.36s WALL (       1 calls)
     potinit      :      0.02s CPU      0.05s WALL (       1 calls)

     Called by electrons:
     c_bands      :      0.95s CPU      1.28s WALL (       5 calls)
     sum_band     :      0.19s CPU      0.19s WALL (       5 calls)
     v_of_rho     :      0.07s CPU      0.09s WALL (       5 calls)
     mix_rho      :      0.00s CPU      0.00s WALL (       5 calls)

     Called by c_bands:
     init_us_2    :      0.03s CPU      0.03s WALL (     209 calls)
     cegterg      :      0.92s CPU      1.25s WALL (      95 calls)

     Called by *egterg:
     h_psi        :      0.95s CPU      1.44s WALL (     319 calls)
     g_psi        :      0.00s CPU      0.00s WALL (     205 calls)
     cdiaghg      :      0.03s CPU      0.03s WALL (     281 calls)

     Called by h_psi:
     add_vuspsi   :      0.03s CPU      0.04s WALL (     319 calls)

     General routines
     calbec       :      0.03s CPU      0.03s WALL (     319 calls)
     fft          :      0.04s CPU      0.09s WALL (      56 calls)
     fftw         :      0.94s CPU      1.32s WALL (    2686 calls)
     davcio       :      0.00s CPU      0.00s WALL (      19 calls)

     Parallel routines
     fft_scatter  :      0.06s CPU      0.10s WALL (    2742 calls)

     PWSCF        :     1.96s CPU         3.03s WALL


   This run was terminated on:   2:19:47   3May2022            

=------------------------------------------------------------------------------=
   JOB DONE.
=------------------------------------------------------------------------------=
