
     Program PWSCF v.5.1 starts on  3May2022 at  2:16:48 

     This program is part of the open-source Quantum ESPRESSO suite
     for quantum simulation of materials; please cite
         "P. Giannozzi et al., J. Phys.:Condens. Matter 21 395502 (2009);
          URL http://www.quantum-espresso.org", 
     in publications or presentations arising from this work. More details at
     http://www.quantum-espresso.org/quote

     Parallel version (MPI), running on     1 processors
     Waiting for input...
     Reading input from standard input

     Current dimensions of program PWSCF are:
     Max number of different atomic species (ntypx) = 10
     Max number of k-points (npk) =  40000
     Max angular momentum in pseudopotentials (lmaxx) =  3

     Subspace diagonalization in iterative solution of the eigenvalue problem:
     a serial algorithm will be used


     G-vector sticks info
     --------------------
     sticks:   dense  smooth     PW     G-vecs:    dense   smooth      PW
     Sum         121     121     55                  869      869     229



     bravais-lattice index     =            2
     lattice parameter (alat)  =       7.0000  a.u.
     unit-cell volume          =      85.7500 (a.u.)^3
     number of atoms/cell      =            2
     number of atomic types    =            1
     number of electrons       =         8.00
     number of Kohn-Sham states=            4
     kinetic-energy cutoff     =      17.0000  Ry
     charge density cutoff     =      68.0000  Ry
     convergence threshold     =      1.0E-06
     mixing beta               =       0.7000
     number of iterations used =            8  plain     mixing
     Exchange-correlation      =  SLA  PW   PBE  PBE ( 1  4  3  4 0)

     celldm(1)=   7.000000  celldm(2)=   0.000000  celldm(3)=   0.000000
     celldm(4)=   0.000000  celldm(5)=   0.000000  celldm(6)=   0.000000

     crystal axes: (cart. coord. in units of alat)
               a(1) = (  -0.500000   0.000000   0.500000 )  
               a(2) = (   0.000000   0.500000   0.500000 )  
               a(3) = (  -0.500000   0.500000   0.000000 )  

     reciprocal axes: (cart. coord. in units 2 pi/alat)
               b(1) = ( -1.000000 -1.000000  1.000000 )  
               b(2) = (  1.000000  1.000000  1.000000 )  
               b(3) = ( -1.000000  1.000000 -1.000000 )  


     PseudoPot. # 1 for Si read from file:
     ./Si.pbe-rrkj.UPF
     MD5 check sum: cf7ab5690cd9a85b22c4813f7e365554
     Pseudo is Norm-conserving, Zval =  4.0
     Generated by new atomic code, or converted to UPF format
     Using radial grid of  883 points,  3 beta functions with: 
                l(1) =   0
                l(2) =   0
                l(3) =   1

     atomic species   valence    mass     pseudopotential
        Si             4.00    28.08600     Si( 1.00)

     24 Sym. Ops. (no inversion) found
          (note: 24 additional sym.ops. were found but ignored
           their fractional translations are incommensurate with FFT grid)


   Cartesian axes

     site n.     atom                  positions (alat units)
         1           Si  tau(   1) = (   0.0000000   0.0000000   0.0000000  )
         2           Si  tau(   2) = (   0.2500000   0.2500000   0.2500000  )

     number of k points=    19
                       cart. coord. in units 2pi/alat
        k(    1) = (  -0.1000000   0.1000000   0.1000000), wk =   0.0320000
        k(    2) = (  -0.3000000   0.3000000  -0.1000000), wk =   0.0960000
        k(    3) = (   0.5000000  -0.5000000   0.7000000), wk =   0.0960000
        k(    4) = (   0.3000000  -0.3000000   0.5000000), wk =   0.0960000
        k(    5) = (   0.1000000  -0.1000000   0.3000000), wk =   0.0960000
        k(    6) = (  -0.1000000   0.5000000   0.1000000), wk =   0.0960000
        k(    7) = (   0.7000000  -0.3000000   0.9000000), wk =   0.1920000
        k(    8) = (   0.5000000  -0.1000000   0.7000000), wk =   0.1920000
        k(    9) = (   0.3000000   0.1000000   0.5000000), wk =   0.1920000
        k(   10) = (  -0.1000000  -1.1000000   0.1000000), wk =   0.0960000
        k(   11) = (  -0.3000000  -0.9000000  -0.1000000), wk =   0.1920000
        k(   12) = (  -0.5000000  -0.7000000  -0.3000000), wk =   0.0960000
        k(   13) = (  -0.1000000  -0.7000000   0.1000000), wk =   0.0960000
        k(   14) = (  -0.3000000   0.3000000   0.3000000), wk =   0.0320000
        k(   15) = (   0.5000000  -0.5000000   1.1000000), wk =   0.0960000
        k(   16) = (   0.3000000  -0.3000000   0.9000000), wk =   0.0960000
        k(   17) = (  -0.3000000  -1.3000000   0.3000000), wk =   0.0960000
        k(   18) = (  -0.5000000  -1.1000000   0.1000000), wk =   0.0960000
        k(   19) = (   0.5000000  -0.5000000  -0.5000000), wk =   0.0160000

     Dense  grid:      869 G-vectors     FFT dimensions: (  15,  15,  15)

     Largest allocated arrays     est. size (Mb)     dimensions
        Kohn-Sham Wavefunctions         0.01 Mb     (     108,    4)
        NL pseudopotentials             0.02 Mb     (     108,   10)
        Each V/rho on FFT grid          0.05 Mb     (    3375)
        Each G-vector array             0.01 Mb     (     869)
        G-vector shells                 0.00 Mb     (      31)
     Largest temporary arrays     est. size (Mb)     dimensions
        Auxiliary wavefunctions         0.03 Mb     (     108,   16)
        Each subspace H/S matrix        0.00 Mb     (      16,   16)
        Each <psi_i|beta_j> matrix      0.00 Mb     (      10,    4)
        Arrays for rho mixing           0.41 Mb     (    3375,    8)

     Initial potential from superposition of free atoms

     starting charge    7.99889, renormalised to    8.00000
     Starting wfc are    8 randomized atomic wfcs

     total cpu time spent up to now is        0.7 secs

     per-process dynamical memory:     4.6 Mb

     Self-consistent Calculation

     iteration #  1     ecut=    17.00 Ry     beta=0.70
     Davidson diagonalization with overlap
     ethr =  1.00E-02,  avg # of iterations =  2.4

     total cpu time spent up to now is        0.8 secs

     total energy              =     -13.40347718 Ry
     Harris-Foulkes estimate   =     -13.43862518 Ry
     estimated scf accuracy    <       0.12552333 Ry

     iteration #  2     ecut=    17.00 Ry     beta=0.70
     Davidson diagonalization with overlap
     ethr =  1.57E-03,  avg # of iterations =  2.5

     total cpu time spent up to now is        0.8 secs

     total energy              =     -13.42584447 Ry
     Harris-Foulkes estimate   =     -13.42363758 Ry
     estimated scf accuracy    <       0.00256275 Ry

     iteration #  3     ecut=    17.00 Ry     beta=0.70
     Davidson diagonalization with overlap
     ethr =  3.20E-05,  avg # of iterations =  3.2

     total cpu time spent up to now is        1.0 secs

     total energy              =     -13.42739470 Ry
     Harris-Foulkes estimate   =     -13.42723892 Ry
     estimated scf accuracy    <       0.00020705 Ry

     iteration #  4     ecut=    17.00 Ry     beta=0.70
     Davidson diagonalization with overlap
     ethr =  2.59E-06,  avg # of iterations =  1.9

     total cpu time spent up to now is        1.0 secs

     total energy              =     -13.42741832 Ry
     Harris-Foulkes estimate   =     -13.42741884 Ry
     estimated scf accuracy    <       0.00000144 Ry

     iteration #  5     ecut=    17.00 Ry     beta=0.70
     Davidson diagonalization with overlap
     ethr =  1.80E-08,  avg # of iterations =  4.2

     total cpu time spent up to now is        1.1 secs

     End of self-consistent calculation

          k =-0.1000 0.1000 0.1000 (   107 PWs)   bands (ev):

     2.7204  23.8328  25.7279  25.7279

          k =-0.3000 0.3000-0.1000 (   104 PWs)   bands (ev):

     4.3395  19.0602  22.1239  26.1805

          k = 0.5000-0.5000 0.7000 (   103 PWs)   bands (ev):

     8.2755  12.0573  22.1683  24.1571

          k = 0.3000-0.3000 0.5000 (   101 PWs)   bands (ev):

     6.7205  14.2479  22.9893  23.9210

          k = 0.1000-0.1000 0.3000 (   102 PWs)   bands (ev):

     3.5336  21.5432  23.5538  25.5443

          k =-0.1000 0.5000 0.1000 (   100 PWs)   bands (ev):

     5.1393  19.6616  21.7603  22.9426

          k = 0.7000-0.3000 0.9000 (   103 PWs)   bands (ev):

     8.2743  15.6709  19.0223  19.1476

          k = 0.5000-0.1000 0.7000 (   100 PWs)   bands (ev):

     9.8078  13.5291  17.0755  20.3709

          k = 0.3000 0.1000 0.5000 (   100 PWs)   bands (ev):

     5.9333  17.0563  20.3150  23.5123

          k =-0.1000-1.1000 0.1000 (   101 PWs)   bands (ev):

    10.5576  14.2499  17.6985  19.9364

          k =-0.3000-0.9000-0.1000 (   103 PWs)   bands (ev):

    11.3092  14.9083  15.0316  18.3754

          k =-0.5000-0.7000-0.3000 (   100 PWs)   bands (ev):

    10.5073  10.6219  20.9176  21.0826

          k =-0.1000-0.7000 0.1000 (   103 PWs)   bands (ev):

     7.4977  18.3579  18.4781  20.5442

          k =-0.3000 0.3000 0.3000 (    98 PWs)   bands (ev):

     5.1399  16.3655  24.7047  24.7047

          k = 0.5000-0.5000 1.1000 (    99 PWs)   bands (ev):

     7.5019  14.9672  18.4259  23.5929

          k = 0.3000-0.3000 0.9000 (   101 PWs)   bands (ev):

    11.9870  12.1311  15.6839  21.1730

          k =-0.3000-1.3000 0.3000 (   103 PWs)   bands (ev):

     9.0433  12.7974  19.7889  21.7826

          k =-0.5000-1.1000 0.1000 (   104 PWs)   bands (ev):

    12.7213  12.8707  16.3462  16.4225

          k = 0.5000-0.5000-0.5000 (   108 PWs)   bands (ev):

     9.7619   9.8506  24.8242  24.8242

     highest occupied level (ev):    26.1805

!    total energy              =     -13.42742066 Ry
     Harris-Foulkes estimate   =     -13.42742075 Ry
     estimated scf accuracy    <       0.00000017 Ry

     The total energy is the sum of the following terms:

     one-electron contribution =      17.32463858 Ry
     hartree contribution      =       0.25774457 Ry
     xc contribution           =      -6.38444130 Ry
     ewald contribution        =     -24.62536251 Ry

     convergence has been achieved in   5 iterations

     Writing output data file Si_exc1.save

     init_run     :      0.15s CPU      0.35s WALL (       1 calls)
     electrons    :      0.27s CPU      0.39s WALL (       1 calls)

     Called by init_run:
     wfcinit      :      0.03s CPU      0.10s WALL (       1 calls)
     potinit      :      0.01s CPU      0.03s WALL (       1 calls)

     Called by electrons:
     c_bands      :      0.22s CPU      0.31s WALL (       5 calls)
     sum_band     :      0.03s CPU      0.03s WALL (       5 calls)
     v_of_rho     :      0.02s CPU      0.02s WALL (       6 calls)
     mix_rho      :      0.00s CPU      0.01s WALL (       5 calls)

     Called by c_bands:
     init_us_2    :      0.01s CPU      0.02s WALL (     209 calls)
     cegterg      :      0.21s CPU      0.29s WALL (      95 calls)

     Called by *egterg:
     h_psi        :      0.16s CPU      0.22s WALL (     384 calls)
     g_psi        :      0.00s CPU      0.00s WALL (     270 calls)
     cdiaghg      :      0.03s CPU      0.12s WALL (     365 calls)

     Called by h_psi:
     add_vuspsi   :      0.01s CPU      0.01s WALL (     384 calls)

     General routines
     calbec       :      0.01s CPU      0.01s WALL (     384 calls)
     fft          :      0.01s CPU      0.07s WALL (      65 calls)
     fftw         :      0.12s CPU      0.16s WALL (    3100 calls)
     davcio       :      0.00s CPU      0.02s WALL (      19 calls)

     Parallel routines
     fft_scatter  :      0.02s CPU      0.03s WALL (    3165 calls)

     PWSCF        :     0.89s CPU         1.77s WALL


   This run was terminated on:   2:16:50   3May2022            

=------------------------------------------------------------------------------=
   JOB DONE.
=------------------------------------------------------------------------------=
