
     Program PWSCF v.5.1 starts on  3May2022 at  2:18:43 

     This program is part of the open-source Quantum ESPRESSO suite
     for quantum simulation of materials; please cite
         "P. Giannozzi et al., J. Phys.:Condens. Matter 21 395502 (2009);
          URL http://www.quantum-espresso.org", 
     in publications or presentations arising from this work. More details at
     http://www.quantum-espresso.org/quote

     Parallel version (MPI), running on     1 processors
     Waiting for input...
     Reading input from standard input

     Current dimensions of program PWSCF are:
     Max number of different atomic species (ntypx) = 10
     Max number of k-points (npk) =  40000
     Max angular momentum in pseudopotentials (lmaxx) =  3

     Subspace diagonalization in iterative solution of the eigenvalue problem:
     a serial algorithm will be used


     G-vector sticks info
     --------------------
     sticks:   dense  smooth     PW     G-vecs:    dense   smooth      PW
     Sum         211     211     85                 2085     2085     459



     bravais-lattice index     =            2
     lattice parameter (alat)  =       9.5000  a.u.
     unit-cell volume          =     214.3438 (a.u.)^3
     number of atoms/cell      =            2
     number of atomic types    =            1
     number of electrons       =         8.00
     number of Kohn-Sham states=            4
     kinetic-energy cutoff     =      17.0000  Ry
     charge density cutoff     =      68.0000  Ry
     convergence threshold     =      1.0E-06
     mixing beta               =       0.7000
     number of iterations used =            8  plain     mixing
     Exchange-correlation      =  SLA  PW   PBE  PBE ( 1  4  3  4 0)

     celldm(1)=   9.500000  celldm(2)=   0.000000  celldm(3)=   0.000000
     celldm(4)=   0.000000  celldm(5)=   0.000000  celldm(6)=   0.000000

     crystal axes: (cart. coord. in units of alat)
               a(1) = (  -0.500000   0.000000   0.500000 )  
               a(2) = (   0.000000   0.500000   0.500000 )  
               a(3) = (  -0.500000   0.500000   0.000000 )  

     reciprocal axes: (cart. coord. in units 2 pi/alat)
               b(1) = ( -1.000000 -1.000000  1.000000 )  
               b(2) = (  1.000000  1.000000  1.000000 )  
               b(3) = ( -1.000000  1.000000 -1.000000 )  


     PseudoPot. # 1 for Si read from file:
     ./Si.pbe-rrkj.UPF
     MD5 check sum: cf7ab5690cd9a85b22c4813f7e365554
     Pseudo is Norm-conserving, Zval =  4.0
     Generated by new atomic code, or converted to UPF format
     Using radial grid of  883 points,  3 beta functions with: 
                l(1) =   0
                l(2) =   0
                l(3) =   1

     atomic species   valence    mass     pseudopotential
        Si             4.00    28.08600     Si( 1.00)

     24 Sym. Ops. (no inversion) found
          (note: 24 additional sym.ops. were found but ignored
           their fractional translations are incommensurate with FFT grid)


   Cartesian axes

     site n.     atom                  positions (alat units)
         1           Si  tau(   1) = (   0.0000000   0.0000000   0.0000000  )
         2           Si  tau(   2) = (   0.2500000   0.2500000   0.2500000  )

     number of k points=    19
                       cart. coord. in units 2pi/alat
        k(    1) = (  -0.1000000   0.1000000   0.1000000), wk =   0.0320000
        k(    2) = (  -0.3000000   0.3000000  -0.1000000), wk =   0.0960000
        k(    3) = (   0.5000000  -0.5000000   0.7000000), wk =   0.0960000
        k(    4) = (   0.3000000  -0.3000000   0.5000000), wk =   0.0960000
        k(    5) = (   0.1000000  -0.1000000   0.3000000), wk =   0.0960000
        k(    6) = (  -0.1000000   0.5000000   0.1000000), wk =   0.0960000
        k(    7) = (   0.7000000  -0.3000000   0.9000000), wk =   0.1920000
        k(    8) = (   0.5000000  -0.1000000   0.7000000), wk =   0.1920000
        k(    9) = (   0.3000000   0.1000000   0.5000000), wk =   0.1920000
        k(   10) = (  -0.1000000  -1.1000000   0.1000000), wk =   0.0960000
        k(   11) = (  -0.3000000  -0.9000000  -0.1000000), wk =   0.1920000
        k(   12) = (  -0.5000000  -0.7000000  -0.3000000), wk =   0.0960000
        k(   13) = (  -0.1000000  -0.7000000   0.1000000), wk =   0.0960000
        k(   14) = (  -0.3000000   0.3000000   0.3000000), wk =   0.0320000
        k(   15) = (   0.5000000  -0.5000000   1.1000000), wk =   0.0960000
        k(   16) = (   0.3000000  -0.3000000   0.9000000), wk =   0.0960000
        k(   17) = (  -0.3000000  -1.3000000   0.3000000), wk =   0.0960000
        k(   18) = (  -0.5000000  -1.1000000   0.1000000), wk =   0.0960000
        k(   19) = (   0.5000000  -0.5000000  -0.5000000), wk =   0.0160000

     Dense  grid:     2085 G-vectors     FFT dimensions: (  18,  18,  18)

     Largest allocated arrays     est. size (Mb)     dimensions
        Kohn-Sham Wavefunctions         0.02 Mb     (     266,    4)
        NL pseudopotentials             0.04 Mb     (     266,   10)
        Each V/rho on FFT grid          0.09 Mb     (    5832)
        Each G-vector array             0.02 Mb     (    2085)
        G-vector shells                 0.00 Mb     (      54)
     Largest temporary arrays     est. size (Mb)     dimensions
        Auxiliary wavefunctions         0.06 Mb     (     266,   16)
        Each subspace H/S matrix        0.00 Mb     (      16,   16)
        Each <psi_i|beta_j> matrix      0.00 Mb     (      10,    4)
        Arrays for rho mixing           0.71 Mb     (    5832,    8)

     Initial potential from superposition of free atoms

     starting charge    7.99889, renormalised to    8.00000
     Starting wfc are    8 randomized atomic wfcs

     total cpu time spent up to now is        0.6 secs

     per-process dynamical memory:     5.5 Mb

     Self-consistent Calculation

     iteration #  1     ecut=    17.00 Ry     beta=0.70
     Davidson diagonalization with overlap
     ethr =  1.00E-02,  avg # of iterations =  2.0

     total cpu time spent up to now is        0.7 secs

     total energy              =     -15.66645762 Ry
     Harris-Foulkes estimate   =     -15.69221686 Ry
     estimated scf accuracy    <       0.08384125 Ry

     iteration #  2     ecut=    17.00 Ry     beta=0.70
     Davidson diagonalization with overlap
     ethr =  1.05E-03,  avg # of iterations =  1.3

     total cpu time spent up to now is        1.0 secs

     total energy              =     -15.67318034 Ry
     Harris-Foulkes estimate   =     -15.67298571 Ry
     estimated scf accuracy    <       0.00277363 Ry

     iteration #  3     ecut=    17.00 Ry     beta=0.70
     Davidson diagonalization with overlap
     ethr =  3.47E-05,  avg # of iterations =  2.7

     total cpu time spent up to now is        1.2 secs

     total energy              =     -15.67414164 Ry
     Harris-Foulkes estimate   =     -15.67418794 Ry
     estimated scf accuracy    <       0.00012797 Ry

     iteration #  4     ecut=    17.00 Ry     beta=0.70
     Davidson diagonalization with overlap
     ethr =  1.60E-06,  avg # of iterations =  2.1

     total cpu time spent up to now is        1.4 secs

     total energy              =     -15.67416625 Ry
     Harris-Foulkes estimate   =     -15.67417240 Ry
     estimated scf accuracy    <       0.00001766 Ry

     iteration #  5     ecut=    17.00 Ry     beta=0.70
     Davidson diagonalization with overlap
     ethr =  2.21E-07,  avg # of iterations =  1.9

     total cpu time spent up to now is        1.6 secs

     End of self-consistent calculation

          k =-0.1000 0.1000 0.1000 (   265 PWs)   bands (ev):

    -4.5753   7.6729   8.6574   8.6574

          k =-0.3000 0.3000-0.1000 (   258 PWs)   bands (ev):

    -3.7433   4.8845   6.7594   8.3465

          k = 0.5000-0.5000 0.7000 (   252 PWs)   bands (ev):

    -1.9417   1.2851   6.4662   7.4429

          k = 0.3000-0.3000 0.5000 (   256 PWs)   bands (ev):

    -2.5769   2.2896   7.0161   7.1158

          k = 0.1000-0.1000 0.3000 (   259 PWs)   bands (ev):

    -4.1549   6.2838   7.6318   7.9961

          k =-0.1000 0.5000 0.1000 (   253 PWs)   bands (ev):

    -3.3232   4.8590   6.5311   6.6341

          k = 0.7000-0.3000 0.9000 (   251 PWs)   bands (ev):

    -1.7621   2.5399   4.7040   5.8768

          k = 0.5000-0.1000 0.7000 (   253 PWs)   bands (ev):

    -1.1563   1.7236   4.0034   6.1255

          k = 0.3000 0.1000 0.5000 (   257 PWs)   bands (ev):

    -2.9337   3.6429   5.6812   7.3004

          k =-0.1000-1.1000 0.1000 (   248 PWs)   bands (ev):

    -0.5373   1.2934   4.8036   5.5516

          k =-0.3000-0.9000-0.1000 (   252 PWs)   bands (ev):

    -0.3258   1.2813   3.9379   5.1669

          k =-0.5000-0.7000-0.3000 (   250 PWs)   bands (ev):

    -1.3316   1.0124   5.4613   6.6390

          k =-0.1000-0.7000 0.1000 (   247 PWs)   bands (ev):

    -2.1028   3.1940   5.3501   5.9206

          k =-0.3000 0.3000 0.3000 (   256 PWs)   bands (ev):

    -3.3456   3.4499   7.8276   7.8276

          k = 0.5000-0.5000 1.1000 (   254 PWs)   bands (ev):

    -2.1818   2.5361   4.7103   7.3339

          k = 0.3000-0.3000 0.9000 (   249 PWs)   bands (ev):

    -0.5465   1.2626   3.5941   6.2083

          k =-0.3000-1.3000 0.3000 (   253 PWs)   bands (ev):

    -1.5257   1.5268   5.2023   6.5267

          k =-0.5000-1.1000 0.1000 (   258 PWs)   bands (ev):

    -0.1547   1.2110   3.6821   4.7709

          k = 0.5000-0.5000-0.5000 (   266 PWs)   bands (ev):

    -1.7454   0.7193   7.5145   7.5145

     highest occupied level (ev):     8.6574

!    total energy              =     -15.67416831 Ry
     Harris-Foulkes estimate   =     -15.67416829 Ry
     estimated scf accuracy    <       0.00000001 Ry

     The total energy is the sum of the following terms:

     one-electron contribution =       6.63924966 Ry
     hartree contribution      =       0.90340904 Ry
     xc contribution           =      -5.07182306 Ry
     ewald contribution        =     -18.14500395 Ry

     convergence has been achieved in   5 iterations

     Writing output data file Si_exc1.save

     init_run     :      0.23s CPU      0.42s WALL (       1 calls)
     electrons    :      0.88s CPU      1.09s WALL (       1 calls)

     Called by init_run:
     wfcinit      :      0.11s CPU      0.15s WALL (       1 calls)
     potinit      :      0.01s CPU      0.03s WALL (       1 calls)

     Called by electrons:
     c_bands      :      0.71s CPU      0.85s WALL (       5 calls)
     sum_band     :      0.13s CPU      0.18s WALL (       5 calls)
     v_of_rho     :      0.04s CPU      0.06s WALL (       6 calls)
     mix_rho      :      0.00s CPU      0.00s WALL (       5 calls)

     Called by c_bands:
     init_us_2    :      0.02s CPU      0.03s WALL (     209 calls)
     cegterg      :      0.69s CPU      0.82s WALL (      95 calls)

     Called by *egterg:
     h_psi        :      0.70s CPU      0.86s WALL (     305 calls)
     g_psi        :      0.00s CPU      0.00s WALL (     191 calls)
     cdiaghg      :      0.02s CPU      0.03s WALL (     286 calls)

     Called by h_psi:
     add_vuspsi   :      0.02s CPU      0.02s WALL (     305 calls)

     General routines
     calbec       :      0.02s CPU      0.02s WALL (     305 calls)
     fft          :      0.03s CPU      0.06s WALL (      65 calls)
     fftw         :      0.72s CPU      0.90s WALL (    2788 calls)
     davcio       :      0.00s CPU      0.00s WALL (      19 calls)

     Parallel routines
     fft_scatter  :      0.04s CPU      0.04s WALL (    2853 calls)

     PWSCF        :     1.53s CPU         2.12s WALL


   This run was terminated on:   2:18:45   3May2022            

=------------------------------------------------------------------------------=
   JOB DONE.
=------------------------------------------------------------------------------=
