
     Program PWSCF v.5.1 starts on  2May2022 at 12: 7:29 

     This program is part of the open-source Quantum ESPRESSO suite
     for quantum simulation of materials; please cite
         "P. Giannozzi et al., J. Phys.:Condens. Matter 21 395502 (2009);
          URL http://www.quantum-espresso.org", 
     in publications or presentations arising from this work. More details at
     http://www.quantum-espresso.org/quote

     Parallel version (MPI), running on     1 processors
     Waiting for input...
     Reading input from standard input

     Current dimensions of program PWSCF are:
     Max number of different atomic species (ntypx) = 10
     Max number of k-points (npk) =  40000
     Max angular momentum in pseudopotentials (lmaxx) =  3

     Subspace diagonalization in iterative solution of the eigenvalue problem:
     a serial algorithm will be used


     G-vector sticks info
     --------------------
     sticks:   dense  smooth     PW     G-vecs:    dense   smooth      PW
     Sum         517     517    163                 7991     7991    1459



     bravais-lattice index     =            2
     lattice parameter (alat)  =      10.5000  a.u.
     unit-cell volume          =     289.4062 (a.u.)^3
     number of atoms/cell      =            2
     number of atomic types    =            1
     number of electrons       =         8.00
     number of Kohn-Sham states=            4
     kinetic-energy cutoff     =      35.0000  Ry
     charge density cutoff     =     140.0000  Ry
     convergence threshold     =      1.0E-06
     mixing beta               =       0.7000
     number of iterations used =            8  plain     mixing
     Exchange-correlation      =  SLA  PW   PBE  PBE ( 1  4  3  4 0)

     celldm(1)=  10.500000  celldm(2)=   0.000000  celldm(3)=   0.000000
     celldm(4)=   0.000000  celldm(5)=   0.000000  celldm(6)=   0.000000

     crystal axes: (cart. coord. in units of alat)
               a(1) = (  -0.500000   0.000000   0.500000 )  
               a(2) = (   0.000000   0.500000   0.500000 )  
               a(3) = (  -0.500000   0.500000   0.000000 )  

     reciprocal axes: (cart. coord. in units 2 pi/alat)
               b(1) = ( -1.000000 -1.000000  1.000000 )  
               b(2) = (  1.000000  1.000000  1.000000 )  
               b(3) = ( -1.000000  1.000000 -1.000000 )  


     PseudoPot. # 1 for Si read from file:
     ./Si.pbe-rrkj.UPF
     MD5 check sum: cf7ab5690cd9a85b22c4813f7e365554
     Pseudo is Norm-conserving, Zval =  4.0
     Generated by new atomic code, or converted to UPF format
     Using radial grid of  883 points,  3 beta functions with: 
                l(1) =   0
                l(2) =   0
                l(3) =   1

     atomic species   valence    mass     pseudopotential
        Si             4.00    28.08600     Si( 1.00)

     24 Sym. Ops. (no inversion) found
          (note: 24 additional sym.ops. were found but ignored
           their fractional translations are incommensurate with FFT grid)


   Cartesian axes

     site n.     atom                  positions (alat units)
         1           Si  tau(   1) = (   0.0000000   0.0000000   0.0000000  )
         2           Si  tau(   2) = (   0.2500000   0.2500000   0.2500000  )

     number of k points=    10
                       cart. coord. in units 2pi/alat
        k(    1) = (  -0.1250000   0.1250000   0.1250000), wk =   0.0625000
        k(    2) = (  -0.3750000   0.3750000  -0.1250000), wk =   0.1875000
        k(    3) = (   0.3750000  -0.3750000   0.6250000), wk =   0.1875000
        k(    4) = (   0.1250000  -0.1250000   0.3750000), wk =   0.1875000
        k(    5) = (  -0.1250000   0.6250000   0.1250000), wk =   0.1875000
        k(    6) = (   0.6250000  -0.1250000   0.8750000), wk =   0.3750000
        k(    7) = (   0.3750000   0.1250000   0.6250000), wk =   0.3750000
        k(    8) = (  -0.1250000  -0.8750000   0.1250000), wk =   0.1875000
        k(    9) = (  -0.3750000   0.3750000   0.3750000), wk =   0.0625000
        k(   10) = (   0.3750000  -0.3750000   1.1250000), wk =   0.1875000

     Dense  grid:     7991 G-vectors     FFT dimensions: (  27,  27,  27)

     Largest allocated arrays     est. size (Mb)     dimensions
        Kohn-Sham Wavefunctions         0.06 Mb     (    1018,    4)
        NL pseudopotentials             0.16 Mb     (    1018,   10)
        Each V/rho on FFT grid          0.30 Mb     (   19683)
        Each G-vector array             0.06 Mb     (    7991)
        G-vector shells                 0.00 Mb     (     132)
     Largest temporary arrays     est. size (Mb)     dimensions
        Auxiliary wavefunctions         0.25 Mb     (    1018,   16)
        Each subspace H/S matrix        0.00 Mb     (      16,   16)
        Each <psi_i|beta_j> matrix      0.00 Mb     (      10,    4)
        Arrays for rho mixing           2.40 Mb     (   19683,    8)

     Initial potential from superposition of free atoms

     starting charge    7.99889, renormalised to    8.00000
     Starting wfc are    8 randomized atomic wfcs

     total cpu time spent up to now is        0.7 secs

     per-process dynamical memory:     9.1 Mb

     Self-consistent Calculation

     iteration #  1     ecut=    35.00 Ry     beta=0.70
     Davidson diagonalization with overlap
     ethr =  1.00E-02,  avg # of iterations =  2.0

     Threshold (ethr) on eigenvalues was too large:
     Diagonalizing with lowered threshold

     Davidson diagonalization with overlap
     ethr =  6.24E-04,  avg # of iterations =  2.0

     total cpu time spent up to now is        1.4 secs

     total energy              =     -15.73816438 Ry
     Harris-Foulkes estimate   =     -15.74912111 Ry
     estimated scf accuracy    <       0.05146819 Ry

     iteration #  2     ecut=    35.00 Ry     beta=0.70
     Davidson diagonalization with overlap
     ethr =  6.43E-04,  avg # of iterations =  1.0

     total cpu time spent up to now is        1.7 secs

     total energy              =     -15.73976531 Ry
     Harris-Foulkes estimate   =     -15.73981843 Ry
     estimated scf accuracy    <       0.00273931 Ry

     iteration #  3     ecut=    35.00 Ry     beta=0.70
     Davidson diagonalization with overlap
     ethr =  3.42E-05,  avg # of iterations =  2.3

     total cpu time spent up to now is        2.0 secs

     total energy              =     -15.74011836 Ry
     Harris-Foulkes estimate   =     -15.74013882 Ry
     estimated scf accuracy    <       0.00006028 Ry

     iteration #  4     ecut=    35.00 Ry     beta=0.70
     Davidson diagonalization with overlap
     ethr =  7.53E-07,  avg # of iterations =  2.9

     total cpu time spent up to now is        2.4 secs

     total energy              =     -15.74015137 Ry
     Harris-Foulkes estimate   =     -15.74015195 Ry
     estimated scf accuracy    <       0.00000224 Ry

     iteration #  5     ecut=    35.00 Ry     beta=0.70
     Davidson diagonalization with overlap
     ethr =  2.80E-08,  avg # of iterations =  2.7

     total cpu time spent up to now is        2.7 secs

     End of self-consistent calculation

          k =-0.1250 0.1250 0.1250 (   989 PWs)   bands (ev):

    -5.7211   3.9704   5.2665   5.2665

          k =-0.3750 0.3750-0.1250 (  1004 PWs)   bands (ev):

    -4.7389   1.0716   3.3703   4.8002

          k = 0.3750-0.3750 0.6250 (  1015 PWs)   bands (ev):

    -3.6597  -0.9054   3.3727   4.0679

          k = 0.1250-0.1250 0.3750 (  1002 PWs)   bands (ev):

    -5.2154   2.3882   4.3096   4.3538

          k =-0.1250 0.6250 0.1250 (  1018 PWs)   bands (ev):

    -4.2280   0.7088   3.0450   3.4728

          k = 0.6250-0.1250 0.8750 (  1015 PWs)   bands (ev):

    -2.6683  -1.1788   1.7686   2.7896

          k = 0.3750 0.1250 0.6250 (  1017 PWs)   bands (ev):

    -3.8344  -0.1070   2.4270   3.7374

          k =-0.1250-0.8750 0.1250 (  1009 PWs)   bands (ev):

    -2.8201  -1.0902   2.3445   3.0245

          k =-0.3750 0.3750 0.3750 (  1014 PWs)   bands (ev):

    -4.3282  -0.1481   4.5076   4.5076

          k = 0.3750-0.3750 1.1250 (  1007 PWs)   bands (ev):

    -3.1844  -0.8609   1.8111   3.7675

     highest occupied level (ev):     5.2665

!    total energy              =     -15.74015207 Ry
     Harris-Foulkes estimate   =     -15.74015211 Ry
     estimated scf accuracy    <       0.00000010 Ry

     The total energy is the sum of the following terms:

     one-electron contribution =       4.26330065 Ry
     hartree contribution      =       1.15463578 Ry
     xc contribution           =      -4.74118015 Ry
     ewald contribution        =     -16.41690835 Ry

     convergence has been achieved in   5 iterations

     Writing output data file Si_exc1.save

     init_run     :      0.39s CPU      0.60s WALL (       1 calls)
     electrons    :      1.79s CPU      2.03s WALL (       1 calls)

     Called by init_run:
     wfcinit      :      0.18s CPU      0.18s WALL (       1 calls)
     potinit      :      0.03s CPU      0.05s WALL (       1 calls)

     Called by electrons:
     c_bands      :      1.39s CPU      1.55s WALL (       6 calls)
     sum_band     :      0.27s CPU      0.34s WALL (       6 calls)
     v_of_rho     :      0.14s CPU      0.14s WALL (       6 calls)
     mix_rho      :      0.01s CPU      0.01s WALL (       6 calls)

     Called by c_bands:
     init_us_2    :      0.05s CPU      0.05s WALL (     130 calls)
     cegterg      :      1.34s CPU      1.50s WALL (      60 calls)

     Called by *egterg:
     h_psi        :      1.37s CPU      1.51s WALL (     199 calls)
     g_psi        :      0.01s CPU      0.01s WALL (     129 calls)
     cdiaghg      :      0.02s CPU      0.02s WALL (     179 calls)

     Called by h_psi:
     add_vuspsi   :      0.04s CPU      0.04s WALL (     199 calls)

     General routines
     calbec       :      0.04s CPU      0.04s WALL (     199 calls)
     fft          :      0.08s CPU      0.10s WALL (      67 calls)
     fftw         :      1.40s CPU      1.59s WALL (    1686 calls)
     davcio       :      0.00s CPU      0.06s WALL (      10 calls)

     Parallel routines
     fft_scatter  :      0.07s CPU      0.08s WALL (    1753 calls)

     PWSCF        :     2.52s CPU         3.25s WALL


   This run was terminated on:  12: 7:32   2May2022            

=------------------------------------------------------------------------------=
   JOB DONE.
=------------------------------------------------------------------------------=
