
     Program PWSCF v.5.1 starts on  2May2022 at 12: 5: 9 

     This program is part of the open-source Quantum ESPRESSO suite
     for quantum simulation of materials; please cite
         "P. Giannozzi et al., J. Phys.:Condens. Matter 21 395502 (2009);
          URL http://www.quantum-espresso.org", 
     in publications or presentations arising from this work. More details at
     http://www.quantum-espresso.org/quote

     Parallel version (MPI), running on     1 processors
     Waiting for input...
     Reading input from standard input

     Current dimensions of program PWSCF are:
     Max number of different atomic species (ntypx) = 10
     Max number of k-points (npk) =  40000
     Max angular momentum in pseudopotentials (lmaxx) =  3

     Subspace diagonalization in iterative solution of the eigenvalue problem:
     a serial algorithm will be used


     G-vector sticks info
     --------------------
     sticks:   dense  smooth     PW     G-vecs:    dense   smooth      PW
     Sum         223     223     85                 2229     2229     531



     bravais-lattice index     =            2
     lattice parameter (alat)  =      10.5000  a.u.
     unit-cell volume          =     289.4062 (a.u.)^3
     number of atoms/cell      =            2
     number of atomic types    =            1
     number of electrons       =         8.00
     number of Kohn-Sham states=            4
     kinetic-energy cutoff     =      15.0000  Ry
     charge density cutoff     =      60.0000  Ry
     convergence threshold     =      1.0E-06
     mixing beta               =       0.7000
     number of iterations used =            8  plain     mixing
     Exchange-correlation      =  SLA  PW   PBE  PBE ( 1  4  3  4 0)

     celldm(1)=  10.500000  celldm(2)=   0.000000  celldm(3)=   0.000000
     celldm(4)=   0.000000  celldm(5)=   0.000000  celldm(6)=   0.000000

     crystal axes: (cart. coord. in units of alat)
               a(1) = (  -0.500000   0.000000   0.500000 )  
               a(2) = (   0.000000   0.500000   0.500000 )  
               a(3) = (  -0.500000   0.500000   0.000000 )  

     reciprocal axes: (cart. coord. in units 2 pi/alat)
               b(1) = ( -1.000000 -1.000000  1.000000 )  
               b(2) = (  1.000000  1.000000  1.000000 )  
               b(3) = ( -1.000000  1.000000 -1.000000 )  


     PseudoPot. # 1 for Si read from file:
     ./Si.pbe-rrkj.UPF
     MD5 check sum: cf7ab5690cd9a85b22c4813f7e365554
     Pseudo is Norm-conserving, Zval =  4.0
     Generated by new atomic code, or converted to UPF format
     Using radial grid of  883 points,  3 beta functions with: 
                l(1) =   0
                l(2) =   0
                l(3) =   1

     atomic species   valence    mass     pseudopotential
        Si             4.00    28.08600     Si( 1.00)

     48 Sym. Ops., with inversion, found (24 have fractional translation)



   Cartesian axes

     site n.     atom                  positions (alat units)
         1           Si  tau(   1) = (   0.0000000   0.0000000   0.0000000  )
         2           Si  tau(   2) = (   0.2500000   0.2500000   0.2500000  )

     number of k points=    10
                       cart. coord. in units 2pi/alat
        k(    1) = (  -0.1250000   0.1250000   0.1250000), wk =   0.0625000
        k(    2) = (  -0.3750000   0.3750000  -0.1250000), wk =   0.1875000
        k(    3) = (   0.3750000  -0.3750000   0.6250000), wk =   0.1875000
        k(    4) = (   0.1250000  -0.1250000   0.3750000), wk =   0.1875000
        k(    5) = (  -0.1250000   0.6250000   0.1250000), wk =   0.1875000
        k(    6) = (   0.6250000  -0.1250000   0.8750000), wk =   0.3750000
        k(    7) = (   0.3750000   0.1250000   0.6250000), wk =   0.3750000
        k(    8) = (  -0.1250000  -0.8750000   0.1250000), wk =   0.1875000
        k(    9) = (  -0.3750000   0.3750000   0.3750000), wk =   0.0625000
        k(   10) = (   0.3750000  -0.3750000   1.1250000), wk =   0.1875000

     Dense  grid:     2229 G-vectors     FFT dimensions: (  20,  20,  20)

     Largest allocated arrays     est. size (Mb)     dimensions
        Kohn-Sham Wavefunctions         0.02 Mb     (     293,    4)
        NL pseudopotentials             0.04 Mb     (     293,   10)
        Each V/rho on FFT grid          0.12 Mb     (    8000)
        Each G-vector array             0.02 Mb     (    2229)
        G-vector shells                 0.00 Mb     (      57)
     Largest temporary arrays     est. size (Mb)     dimensions
        Auxiliary wavefunctions         0.07 Mb     (     293,   16)
        Each subspace H/S matrix        0.00 Mb     (      16,   16)
        Each <psi_i|beta_j> matrix      0.00 Mb     (      10,    4)
        Arrays for rho mixing           0.98 Mb     (    8000,    8)

     Initial potential from superposition of free atoms

     starting charge    7.99889, renormalised to    8.00000
     Starting wfc are    8 randomized atomic wfcs

     total cpu time spent up to now is        0.4 secs

     per-process dynamical memory:     5.7 Mb

     Self-consistent Calculation

     iteration #  1     ecut=    15.00 Ry     beta=0.70
     Davidson diagonalization with overlap
     ethr =  1.00E-02,  avg # of iterations =  2.0

     Threshold (ethr) on eigenvalues was too large:
     Diagonalizing with lowered threshold

     Davidson diagonalization with overlap
     ethr =  6.15E-04,  avg # of iterations =  1.9

     total cpu time spent up to now is        0.6 secs

     total energy              =     -15.73364582 Ry
     Harris-Foulkes estimate   =     -15.74469866 Ry
     estimated scf accuracy    <       0.05128559 Ry

     iteration #  2     ecut=    15.00 Ry     beta=0.70
     Davidson diagonalization with overlap
     ethr =  6.41E-04,  avg # of iterations =  1.0

     total cpu time spent up to now is        0.7 secs

     total energy              =     -15.73516889 Ry
     Harris-Foulkes estimate   =     -15.73527488 Ry
     estimated scf accuracy    <       0.00270603 Ry

     iteration #  3     ecut=    15.00 Ry     beta=0.70
     Davidson diagonalization with overlap
     ethr =  3.38E-05,  avg # of iterations =  2.4

     total cpu time spent up to now is        0.8 secs

     total energy              =     -15.73550647 Ry
     Harris-Foulkes estimate   =     -15.73552602 Ry
     estimated scf accuracy    <       0.00005505 Ry

     iteration #  4     ecut=    15.00 Ry     beta=0.70
     Davidson diagonalization with overlap
     ethr =  6.88E-07,  avg # of iterations =  2.9

     total cpu time spent up to now is        0.8 secs

     total energy              =     -15.73553786 Ry
     Harris-Foulkes estimate   =     -15.73553805 Ry
     estimated scf accuracy    <       0.00000138 Ry

     iteration #  5     ecut=    15.00 Ry     beta=0.70
     Davidson diagonalization with overlap
     ethr =  1.72E-08,  avg # of iterations =  2.6

     total cpu time spent up to now is        0.9 secs

     End of self-consistent calculation

          k =-0.1250 0.1250 0.1250 (   289 PWs)   bands (ev):

    -5.7209   3.9781   5.2759   5.2759

          k =-0.3750 0.3750-0.1250 (   290 PWs)   bands (ev):

    -4.7384   1.0772   3.3771   4.8079

          k = 0.3750-0.3750 0.6250 (   280 PWs)   bands (ev):

    -3.6584  -0.8987   3.3805   4.0776

          k = 0.1250-0.1250 0.3750 (   293 PWs)   bands (ev):

    -5.2151   2.3935   4.3167   4.3613

          k =-0.1250 0.6250 0.1250 (   287 PWs)   bands (ev):

    -4.2272   0.7149   3.0527   3.4809

          k = 0.6250-0.1250 0.8750 (   282 PWs)   bands (ev):

    -2.6663  -1.1761   1.7783   2.7981

          k = 0.3750 0.1250 0.6250 (   283 PWs)   bands (ev):

    -3.8336  -0.1010   2.4353   3.7456

          k =-0.1250-0.8750 0.1250 (   282 PWs)   bands (ev):

    -2.8176  -1.0863   2.3543   3.0344

          k =-0.3750 0.3750 0.3750 (   281 PWs)   bands (ev):

    -4.3270  -0.1413   4.5156   4.5156

          k = 0.3750-0.3750 1.1250 (   280 PWs)   bands (ev):

    -3.1835  -0.8567   1.8198   3.7761

     highest occupied level (ev):     5.2759

!    total energy              =     -15.73553836 Ry
     Harris-Foulkes estimate   =     -15.73553840 Ry
     estimated scf accuracy    <       0.00000009 Ry

     The total energy is the sum of the following terms:

     one-electron contribution =       4.26761604 Ry
     hartree contribution      =       1.15315651 Ry
     xc contribution           =      -4.73940229 Ry
     ewald contribution        =     -16.41690862 Ry

     convergence has been achieved in   5 iterations

     Writing output data file Si_exc1.save

     init_run     :      0.13s CPU      0.26s WALL (       1 calls)
     electrons    :      0.31s CPU      0.47s WALL (       1 calls)

     Called by init_run:
     wfcinit      :      0.03s CPU      0.07s WALL (       1 calls)
     potinit      :      0.01s CPU      0.02s WALL (       1 calls)

     Called by electrons:
     c_bands      :      0.22s CPU      0.35s WALL (       6 calls)
     sum_band     :      0.05s CPU      0.06s WALL (       6 calls)
     v_of_rho     :      0.04s CPU      0.06s WALL (       6 calls)
     mix_rho      :      0.00s CPU      0.00s WALL (       6 calls)

     Called by c_bands:
     init_us_2    :      0.02s CPU      0.02s WALL (     130 calls)
     cegterg      :      0.20s CPU      0.34s WALL (      60 calls)

     Called by *egterg:
     h_psi        :      0.17s CPU      0.30s WALL (     198 calls)
     g_psi        :      0.00s CPU      0.00s WALL (     128 calls)
     cdiaghg      :      0.02s CPU      0.04s WALL (     178 calls)

     Called by h_psi:
     add_vuspsi   :      0.01s CPU      0.03s WALL (     198 calls)

     General routines
     calbec       :      0.01s CPU      0.02s WALL (     198 calls)
     fft          :      0.01s CPU      0.03s WALL (      67 calls)
     fftw         :      0.13s CPU      0.19s WALL (    1684 calls)
     davcio       :      0.00s CPU      0.00s WALL (      10 calls)

     Parallel routines
     fft_scatter  :      0.03s CPU      0.04s WALL (    1751 calls)

     PWSCF        :     0.84s CPU         1.36s WALL


   This run was terminated on:  12: 5:10   2May2022            

=------------------------------------------------------------------------------=
   JOB DONE.
=------------------------------------------------------------------------------=
