
     Program PWSCF v.5.1 starts on  2May2022 at 12: 7: 3 

     This program is part of the open-source Quantum ESPRESSO suite
     for quantum simulation of materials; please cite
         "P. Giannozzi et al., J. Phys.:Condens. Matter 21 395502 (2009);
          URL http://www.quantum-espresso.org", 
     in publications or presentations arising from this work. More details at
     http://www.quantum-espresso.org/quote

     Parallel version (MPI), running on     1 processors
     Waiting for input...
     Reading input from standard input

     Current dimensions of program PWSCF are:
     Max number of different atomic species (ntypx) = 10
     Max number of k-points (npk) =  40000
     Max angular momentum in pseudopotentials (lmaxx) =  3

     Subspace diagonalization in iterative solution of the eigenvalue problem:
     a serial algorithm will be used


     G-vector sticks info
     --------------------
     sticks:   dense  smooth     PW     G-vecs:    dense   smooth      PW
     Sum         451     451    151                 6375     6375    1243



     bravais-lattice index     =            2
     lattice parameter (alat)  =      10.5000  a.u.
     unit-cell volume          =     289.4062 (a.u.)^3
     number of atoms/cell      =            2
     number of atomic types    =            1
     number of electrons       =         8.00
     number of Kohn-Sham states=            4
     kinetic-energy cutoff     =      30.0000  Ry
     charge density cutoff     =     120.0000  Ry
     convergence threshold     =      1.0E-06
     mixing beta               =       0.7000
     number of iterations used =            8  plain     mixing
     Exchange-correlation      =  SLA  PW   PBE  PBE ( 1  4  3  4 0)

     celldm(1)=  10.500000  celldm(2)=   0.000000  celldm(3)=   0.000000
     celldm(4)=   0.000000  celldm(5)=   0.000000  celldm(6)=   0.000000

     crystal axes: (cart. coord. in units of alat)
               a(1) = (  -0.500000   0.000000   0.500000 )  
               a(2) = (   0.000000   0.500000   0.500000 )  
               a(3) = (  -0.500000   0.500000   0.000000 )  

     reciprocal axes: (cart. coord. in units 2 pi/alat)
               b(1) = ( -1.000000 -1.000000  1.000000 )  
               b(2) = (  1.000000  1.000000  1.000000 )  
               b(3) = ( -1.000000  1.000000 -1.000000 )  


     PseudoPot. # 1 for Si read from file:
     ./Si.pbe-rrkj.UPF
     MD5 check sum: cf7ab5690cd9a85b22c4813f7e365554
     Pseudo is Norm-conserving, Zval =  4.0
     Generated by new atomic code, or converted to UPF format
     Using radial grid of  883 points,  3 beta functions with: 
                l(1) =   0
                l(2) =   0
                l(3) =   1

     atomic species   valence    mass     pseudopotential
        Si             4.00    28.08600     Si( 1.00)

     24 Sym. Ops. (no inversion) found
          (note: 24 additional sym.ops. were found but ignored
           their fractional translations are incommensurate with FFT grid)


   Cartesian axes

     site n.     atom                  positions (alat units)
         1           Si  tau(   1) = (   0.0000000   0.0000000   0.0000000  )
         2           Si  tau(   2) = (   0.2500000   0.2500000   0.2500000  )

     number of k points=    10
                       cart. coord. in units 2pi/alat
        k(    1) = (  -0.1250000   0.1250000   0.1250000), wk =   0.0625000
        k(    2) = (  -0.3750000   0.3750000  -0.1250000), wk =   0.1875000
        k(    3) = (   0.3750000  -0.3750000   0.6250000), wk =   0.1875000
        k(    4) = (   0.1250000  -0.1250000   0.3750000), wk =   0.1875000
        k(    5) = (  -0.1250000   0.6250000   0.1250000), wk =   0.1875000
        k(    6) = (   0.6250000  -0.1250000   0.8750000), wk =   0.3750000
        k(    7) = (   0.3750000   0.1250000   0.6250000), wk =   0.3750000
        k(    8) = (  -0.1250000  -0.8750000   0.1250000), wk =   0.1875000
        k(    9) = (  -0.3750000   0.3750000   0.3750000), wk =   0.0625000
        k(   10) = (   0.3750000  -0.3750000   1.1250000), wk =   0.1875000

     Dense  grid:     6375 G-vectors     FFT dimensions: (  25,  25,  25)

     Largest allocated arrays     est. size (Mb)     dimensions
        Kohn-Sham Wavefunctions         0.05 Mb     (     815,    4)
        NL pseudopotentials             0.12 Mb     (     815,   10)
        Each V/rho on FFT grid          0.24 Mb     (   15625)
        Each G-vector array             0.05 Mb     (    6375)
        G-vector shells                 0.00 Mb     (     114)
     Largest temporary arrays     est. size (Mb)     dimensions
        Auxiliary wavefunctions         0.20 Mb     (     815,   16)
        Each subspace H/S matrix        0.00 Mb     (      16,   16)
        Each <psi_i|beta_j> matrix      0.00 Mb     (      10,    4)
        Arrays for rho mixing           1.91 Mb     (   15625,    8)

     Initial potential from superposition of free atoms

     starting charge    7.99889, renormalised to    8.00000
     Starting wfc are    8 randomized atomic wfcs

     total cpu time spent up to now is        0.5 secs

     per-process dynamical memory:     8.0 Mb

     Self-consistent Calculation

     iteration #  1     ecut=    30.00 Ry     beta=0.70
     Davidson diagonalization with overlap
     ethr =  1.00E-02,  avg # of iterations =  2.0

     Threshold (ethr) on eigenvalues was too large:
     Diagonalizing with lowered threshold

     Davidson diagonalization with overlap
     ethr =  6.27E-04,  avg # of iterations =  1.9

     total cpu time spent up to now is        0.8 secs

     total energy              =     -15.73811988 Ry
     Harris-Foulkes estimate   =     -15.74907372 Ry
     estimated scf accuracy    <       0.05151594 Ry

     iteration #  2     ecut=    30.00 Ry     beta=0.70
     Davidson diagonalization with overlap
     ethr =  6.44E-04,  avg # of iterations =  1.0

     total cpu time spent up to now is        1.0 secs

     total energy              =     -15.73972249 Ry
     Harris-Foulkes estimate   =     -15.73977391 Ry
     estimated scf accuracy    <       0.00273688 Ry

     iteration #  3     ecut=    30.00 Ry     beta=0.70
     Davidson diagonalization with overlap
     ethr =  3.42E-05,  avg # of iterations =  2.4

     total cpu time spent up to now is        1.1 secs

     total energy              =     -15.74007928 Ry
     Harris-Foulkes estimate   =     -15.74010236 Ry
     estimated scf accuracy    <       0.00006410 Ry

     iteration #  4     ecut=    30.00 Ry     beta=0.70
     Davidson diagonalization with overlap
     ethr =  8.01E-07,  avg # of iterations =  2.9

     total cpu time spent up to now is        1.3 secs

     total energy              =     -15.74010722 Ry
     Harris-Foulkes estimate   =     -15.74010846 Ry
     estimated scf accuracy    <       0.00000404 Ry

     iteration #  5     ecut=    30.00 Ry     beta=0.70
     Davidson diagonalization with overlap
     ethr =  5.05E-08,  avg # of iterations =  2.1

     total cpu time spent up to now is        1.4 secs

     End of self-consistent calculation

          k =-0.1250 0.1250 0.1250 (   815 PWs)   bands (ev):

    -5.7206   3.9710   5.2671   5.2671

          k =-0.3750 0.3750-0.1250 (   804 PWs)   bands (ev):

    -4.7384   1.0721   3.3708   4.8008

          k = 0.3750-0.3750 0.6250 (   805 PWs)   bands (ev):

    -3.6592  -0.9049   3.3732   4.0684

          k = 0.1250-0.1250 0.3750 (   810 PWs)   bands (ev):

    -5.2149   2.3888   4.3101   4.3544

          k =-0.1250 0.6250 0.1250 (   811 PWs)   bands (ev):

    -4.2275   0.7094   3.0455   3.4733

          k = 0.6250-0.1250 0.8750 (   800 PWs)   bands (ev):

    -2.6677  -1.1782   1.7690   2.7901

          k = 0.3750 0.1250 0.6250 (   800 PWs)   bands (ev):

    -3.8339  -0.1064   2.4275   3.7379

          k =-0.1250-0.8750 0.1250 (   792 PWs)   bands (ev):

    -2.8196  -1.0896   2.3450   3.0251

          k =-0.3750 0.3750 0.3750 (   808 PWs)   bands (ev):

    -4.3277  -0.1476   4.5081   4.5081

          k = 0.3750-0.3750 1.1250 (   798 PWs)   bands (ev):

    -3.1839  -0.8604   1.8115   3.7680

     highest occupied level (ev):     5.2671

!    total energy              =     -15.74010808 Ry
     Harris-Foulkes estimate   =     -15.74010819 Ry
     estimated scf accuracy    <       0.00000026 Ry

     The total energy is the sum of the following terms:

     one-electron contribution =       4.26344055 Ry
     hartree contribution      =       1.15454312 Ry
     xc contribution           =      -4.74118338 Ry
     ewald contribution        =     -16.41690838 Ry

     convergence has been achieved in   5 iterations

     Writing output data file Si_exc1.save

     init_run     :      0.24s CPU      0.42s WALL (       1 calls)
     electrons    :      0.66s CPU      0.84s WALL (       1 calls)

     Called by init_run:
     wfcinit      :      0.07s CPU      0.19s WALL (       1 calls)
     potinit      :      0.02s CPU      0.03s WALL (       1 calls)

     Called by electrons:
     c_bands      :      0.48s CPU      0.60s WALL (       6 calls)
     sum_band     :      0.09s CPU      0.09s WALL (       6 calls)
     v_of_rho     :      0.08s CPU      0.12s WALL (       6 calls)
     mix_rho      :      0.01s CPU      0.01s WALL (       6 calls)

     Called by c_bands:
     init_us_2    :      0.04s CPU      0.04s WALL (     130 calls)
     cegterg      :      0.45s CPU      0.56s WALL (      60 calls)

     Called by *egterg:
     h_psi        :      0.40s CPU      0.58s WALL (     193 calls)
     g_psi        :      0.00s CPU      0.00s WALL (     123 calls)
     cdiaghg      :      0.02s CPU      0.02s WALL (     173 calls)

     Called by h_psi:
     add_vuspsi   :      0.03s CPU      0.04s WALL (     193 calls)

     General routines
     calbec       :      0.03s CPU      0.04s WALL (     193 calls)
     fft          :      0.02s CPU      0.03s WALL (      67 calls)
     fftw         :      0.31s CPU      0.44s WALL (    1672 calls)
     davcio       :      0.00s CPU      0.00s WALL (      10 calls)

     Parallel routines
     fft_scatter  :      0.05s CPU      0.09s WALL (    1739 calls)

     PWSCF        :     1.24s CPU         1.78s WALL


   This run was terminated on:  12: 7: 5   2May2022            

=------------------------------------------------------------------------------=
   JOB DONE.
=------------------------------------------------------------------------------=
