
     Program PWSCF v.5.1 starts on  2May2022 at 12: 6:31 

     This program is part of the open-source Quantum ESPRESSO suite
     for quantum simulation of materials; please cite
         "P. Giannozzi et al., J. Phys.:Condens. Matter 21 395502 (2009);
          URL http://www.quantum-espresso.org", 
     in publications or presentations arising from this work. More details at
     http://www.quantum-espresso.org/quote

     Parallel version (MPI), running on     1 processors
     Waiting for input...
     Reading input from standard input

     Current dimensions of program PWSCF are:
     Max number of different atomic species (ntypx) = 10
     Max number of k-points (npk) =  40000
     Max angular momentum in pseudopotentials (lmaxx) =  3

     Subspace diagonalization in iterative solution of the eigenvalue problem:
     a serial algorithm will be used


     G-vector sticks info
     --------------------
     sticks:   dense  smooth     PW     G-vecs:    dense   smooth      PW
     Sum         379     379    121                 4909     4909     941



     bravais-lattice index     =            2
     lattice parameter (alat)  =      10.5000  a.u.
     unit-cell volume          =     289.4062 (a.u.)^3
     number of atoms/cell      =            2
     number of atomic types    =            1
     number of electrons       =         8.00
     number of Kohn-Sham states=            4
     kinetic-energy cutoff     =      25.0000  Ry
     charge density cutoff     =     100.0000  Ry
     convergence threshold     =      1.0E-06
     mixing beta               =       0.7000
     number of iterations used =            8  plain     mixing
     Exchange-correlation      =  SLA  PW   PBE  PBE ( 1  4  3  4 0)

     celldm(1)=  10.500000  celldm(2)=   0.000000  celldm(3)=   0.000000
     celldm(4)=   0.000000  celldm(5)=   0.000000  celldm(6)=   0.000000

     crystal axes: (cart. coord. in units of alat)
               a(1) = (  -0.500000   0.000000   0.500000 )  
               a(2) = (   0.000000   0.500000   0.500000 )  
               a(3) = (  -0.500000   0.500000   0.000000 )  

     reciprocal axes: (cart. coord. in units 2 pi/alat)
               b(1) = ( -1.000000 -1.000000  1.000000 )  
               b(2) = (  1.000000  1.000000  1.000000 )  
               b(3) = ( -1.000000  1.000000 -1.000000 )  


     PseudoPot. # 1 for Si read from file:
     ./Si.pbe-rrkj.UPF
     MD5 check sum: cf7ab5690cd9a85b22c4813f7e365554
     Pseudo is Norm-conserving, Zval =  4.0
     Generated by new atomic code, or converted to UPF format
     Using radial grid of  883 points,  3 beta functions with: 
                l(1) =   0
                l(2) =   0
                l(3) =   1

     atomic species   valence    mass     pseudopotential
        Si             4.00    28.08600     Si( 1.00)

     48 Sym. Ops., with inversion, found (24 have fractional translation)



   Cartesian axes

     site n.     atom                  positions (alat units)
         1           Si  tau(   1) = (   0.0000000   0.0000000   0.0000000  )
         2           Si  tau(   2) = (   0.2500000   0.2500000   0.2500000  )

     number of k points=    10
                       cart. coord. in units 2pi/alat
        k(    1) = (  -0.1250000   0.1250000   0.1250000), wk =   0.0625000
        k(    2) = (  -0.3750000   0.3750000  -0.1250000), wk =   0.1875000
        k(    3) = (   0.3750000  -0.3750000   0.6250000), wk =   0.1875000
        k(    4) = (   0.1250000  -0.1250000   0.3750000), wk =   0.1875000
        k(    5) = (  -0.1250000   0.6250000   0.1250000), wk =   0.1875000
        k(    6) = (   0.6250000  -0.1250000   0.8750000), wk =   0.3750000
        k(    7) = (   0.3750000   0.1250000   0.6250000), wk =   0.3750000
        k(    8) = (  -0.1250000  -0.8750000   0.1250000), wk =   0.1875000
        k(    9) = (  -0.3750000   0.3750000   0.3750000), wk =   0.0625000
        k(   10) = (   0.3750000  -0.3750000   1.1250000), wk =   0.1875000

     Dense  grid:     4909 G-vectors     FFT dimensions: (  24,  24,  24)

     Largest allocated arrays     est. size (Mb)     dimensions
        Kohn-Sham Wavefunctions         0.04 Mb     (     615,    4)
        NL pseudopotentials             0.09 Mb     (     615,   10)
        Each V/rho on FFT grid          0.21 Mb     (   13824)
        Each G-vector array             0.04 Mb     (    4909)
        G-vector shells                 0.00 Mb     (      95)
     Largest temporary arrays     est. size (Mb)     dimensions
        Auxiliary wavefunctions         0.15 Mb     (     615,   16)
        Each subspace H/S matrix        0.00 Mb     (      16,   16)
        Each <psi_i|beta_j> matrix      0.00 Mb     (      10,    4)
        Arrays for rho mixing           1.69 Mb     (   13824,    8)

     Initial potential from superposition of free atoms

     starting charge    7.99889, renormalised to    8.00000
     Starting wfc are    8 randomized atomic wfcs

     total cpu time spent up to now is        0.6 secs

     per-process dynamical memory:     7.4 Mb

     Self-consistent Calculation

     iteration #  1     ecut=    25.00 Ry     beta=0.70
     Davidson diagonalization with overlap
     ethr =  1.00E-02,  avg # of iterations =  2.0

     Threshold (ethr) on eigenvalues was too large:
     Diagonalizing with lowered threshold

     Davidson diagonalization with overlap
     ethr =  6.20E-04,  avg # of iterations =  1.8

     total cpu time spent up to now is        1.0 secs

     total energy              =     -15.73804317 Ry
     Harris-Foulkes estimate   =     -15.74896885 Ry
     estimated scf accuracy    <       0.05153321 Ry

     iteration #  2     ecut=    25.00 Ry     beta=0.70
     Davidson diagonalization with overlap
     ethr =  6.44E-04,  avg # of iterations =  1.0

     total cpu time spent up to now is        1.1 secs

     total energy              =     -15.73964177 Ry
     Harris-Foulkes estimate   =     -15.73969470 Ry
     estimated scf accuracy    <       0.00273107 Ry

     iteration #  3     ecut=    25.00 Ry     beta=0.70
     Davidson diagonalization with overlap
     ethr =  3.41E-05,  avg # of iterations =  2.4

     total cpu time spent up to now is        1.3 secs

     total energy              =     -15.73999023 Ry
     Harris-Foulkes estimate   =     -15.74001326 Ry
     estimated scf accuracy    <       0.00006350 Ry

     iteration #  4     ecut=    25.00 Ry     beta=0.70
     Davidson diagonalization with overlap
     ethr =  7.94E-07,  avg # of iterations =  2.7

     total cpu time spent up to now is        1.5 secs

     total energy              =     -15.74001880 Ry
     Harris-Foulkes estimate   =     -15.74002012 Ry
     estimated scf accuracy    <       0.00000419 Ry

     iteration #  5     ecut=    25.00 Ry     beta=0.70
     Davidson diagonalization with overlap
     ethr =  5.24E-08,  avg # of iterations =  2.4

     total cpu time spent up to now is        1.7 secs

     End of self-consistent calculation

          k =-0.1250 0.1250 0.1250 (   603 PWs)   bands (ev):

    -5.7202   3.9712   5.2673   5.2673

          k =-0.3750 0.3750-0.1250 (   611 PWs)   bands (ev):

    -4.7380   1.0724   3.3709   4.8009

          k = 0.3750-0.3750 0.6250 (   606 PWs)   bands (ev):

    -3.6588  -0.9046   3.3734   4.0686

          k = 0.1250-0.1250 0.3750 (   604 PWs)   bands (ev):

    -5.2145   2.3890   4.3103   4.3545

          k =-0.1250 0.6250 0.1250 (   610 PWs)   bands (ev):

    -4.2271   0.7097   3.0457   3.4734

          k = 0.6250-0.1250 0.8750 (   613 PWs)   bands (ev):

    -2.6674  -1.1779   1.7692   2.7902

          k = 0.3750 0.1250 0.6250 (   614 PWs)   bands (ev):

    -3.8336  -0.1062   2.4276   3.7381

          k =-0.1250-0.8750 0.1250 (   615 PWs)   bands (ev):

    -2.8193  -1.0893   2.3451   3.0252

          k =-0.3750 0.3750 0.3750 (   607 PWs)   bands (ev):

    -4.3274  -0.1473   4.5083   4.5083

          k = 0.3750-0.3750 1.1250 (   614 PWs)   bands (ev):

    -3.1836  -0.8601   1.8116   3.7682

     highest occupied level (ev):     5.2673

!    total energy              =     -15.74001982 Ry
     Harris-Foulkes estimate   =     -15.74001995 Ry
     estimated scf accuracy    <       0.00000030 Ry

     The total energy is the sum of the following terms:

     one-electron contribution =       4.26359822 Ry
     hartree contribution      =       1.15452389 Ry
     xc contribution           =      -4.74123358 Ry
     ewald contribution        =     -16.41690835 Ry

     convergence has been achieved in   5 iterations

     Writing output data file Si_exc1.save

     init_run     :      0.26s CPU      0.43s WALL (       1 calls)
     electrons    :      0.89s CPU      1.10s WALL (       1 calls)

     Called by init_run:
     wfcinit      :      0.09s CPU      0.10s WALL (       1 calls)
     potinit      :      0.02s CPU      0.04s WALL (       1 calls)

     Called by electrons:
     c_bands      :      0.65s CPU      0.78s WALL (       6 calls)
     sum_band     :      0.15s CPU      0.22s WALL (       6 calls)
     v_of_rho     :      0.09s CPU      0.11s WALL (       6 calls)
     mix_rho      :      0.01s CPU      0.01s WALL (       6 calls)

     Called by c_bands:
     init_us_2    :      0.03s CPU      0.06s WALL (     130 calls)
     cegterg      :      0.63s CPU      0.75s WALL (      60 calls)

     Called by *egterg:
     h_psi        :      0.61s CPU      0.73s WALL (     193 calls)
     g_psi        :      0.00s CPU      0.00s WALL (     123 calls)
     cdiaghg      :      0.02s CPU      0.02s WALL (     173 calls)

     Called by h_psi:
     add_vuspsi   :      0.02s CPU      0.03s WALL (     193 calls)

     General routines
     calbec       :      0.03s CPU      0.03s WALL (     193 calls)
     fft          :      0.05s CPU      0.08s WALL (      67 calls)
     fftw         :      0.59s CPU      0.71s WALL (    1660 calls)
     davcio       :      0.00s CPU      0.00s WALL (      10 calls)

     Parallel routines
     fft_scatter  :      0.05s CPU      0.05s WALL (    1727 calls)

     PWSCF        :     1.53s CPU         2.08s WALL


   This run was terminated on:  12: 6:33   2May2022            

=------------------------------------------------------------------------------=
   JOB DONE.
=------------------------------------------------------------------------------=
