
     Program PWSCF v.5.1 starts on  2May2022 at 12: 2:25 

     This program is part of the open-source Quantum ESPRESSO suite
     for quantum simulation of materials; please cite
         "P. Giannozzi et al., J. Phys.:Condens. Matter 21 395502 (2009);
          URL http://www.quantum-espresso.org", 
     in publications or presentations arising from this work. More details at
     http://www.quantum-espresso.org/quote

     Parallel version (MPI), running on     1 processors
     Waiting for input...
     Reading input from standard input

     Current dimensions of program PWSCF are:
     Max number of different atomic species (ntypx) = 10
     Max number of k-points (npk) =  40000
     Max angular momentum in pseudopotentials (lmaxx) =  3

     Subspace diagonalization in iterative solution of the eigenvalue problem:
     a serial algorithm will be used


     G-vector sticks info
     --------------------
     sticks:   dense  smooth     PW     G-vecs:    dense   smooth      PW
     Sum         151     151     55                 1243     1243     283



     bravais-lattice index     =            2
     lattice parameter (alat)  =      10.5000  a.u.
     unit-cell volume          =     289.4062 (a.u.)^3
     number of atoms/cell      =            2
     number of atomic types    =            1
     number of electrons       =         8.00
     number of Kohn-Sham states=            4
     kinetic-energy cutoff     =      10.0000  Ry
     charge density cutoff     =      40.0000  Ry
     convergence threshold     =      1.0E-06
     mixing beta               =       0.7000
     number of iterations used =            8  plain     mixing
     Exchange-correlation      =  SLA  PW   PBE  PBE ( 1  4  3  4 0)

     celldm(1)=  10.500000  celldm(2)=   0.000000  celldm(3)=   0.000000
     celldm(4)=   0.000000  celldm(5)=   0.000000  celldm(6)=   0.000000

     crystal axes: (cart. coord. in units of alat)
               a(1) = (  -0.500000   0.000000   0.500000 )  
               a(2) = (   0.000000   0.500000   0.500000 )  
               a(3) = (  -0.500000   0.500000   0.000000 )  

     reciprocal axes: (cart. coord. in units 2 pi/alat)
               b(1) = ( -1.000000 -1.000000  1.000000 )  
               b(2) = (  1.000000  1.000000  1.000000 )  
               b(3) = ( -1.000000  1.000000 -1.000000 )  


     PseudoPot. # 1 for Si read from file:
     ./Si.pbe-rrkj.UPF
     MD5 check sum: cf7ab5690cd9a85b22c4813f7e365554
     Pseudo is Norm-conserving, Zval =  4.0
     Generated by new atomic code, or converted to UPF format
     Using radial grid of  883 points,  3 beta functions with: 
                l(1) =   0
                l(2) =   0
                l(3) =   1

     atomic species   valence    mass     pseudopotential
        Si             4.00    28.08600     Si( 1.00)

     24 Sym. Ops. (no inversion) found
          (note: 24 additional sym.ops. were found but ignored
           their fractional translations are incommensurate with FFT grid)


   Cartesian axes

     site n.     atom                  positions (alat units)
         1           Si  tau(   1) = (   0.0000000   0.0000000   0.0000000  )
         2           Si  tau(   2) = (   0.2500000   0.2500000   0.2500000  )

     number of k points=    10
                       cart. coord. in units 2pi/alat
        k(    1) = (  -0.1250000   0.1250000   0.1250000), wk =   0.0625000
        k(    2) = (  -0.3750000   0.3750000  -0.1250000), wk =   0.1875000
        k(    3) = (   0.3750000  -0.3750000   0.6250000), wk =   0.1875000
        k(    4) = (   0.1250000  -0.1250000   0.3750000), wk =   0.1875000
        k(    5) = (  -0.1250000   0.6250000   0.1250000), wk =   0.1875000
        k(    6) = (   0.6250000  -0.1250000   0.8750000), wk =   0.3750000
        k(    7) = (   0.3750000   0.1250000   0.6250000), wk =   0.3750000
        k(    8) = (  -0.1250000  -0.8750000   0.1250000), wk =   0.1875000
        k(    9) = (  -0.3750000   0.3750000   0.3750000), wk =   0.0625000
        k(   10) = (   0.3750000  -0.3750000   1.1250000), wk =   0.1875000

     Dense  grid:     1243 G-vectors     FFT dimensions: (  15,  15,  15)

     Largest allocated arrays     est. size (Mb)     dimensions
        Kohn-Sham Wavefunctions         0.01 Mb     (     159,    4)
        NL pseudopotentials             0.02 Mb     (     159,   10)
        Each V/rho on FFT grid          0.05 Mb     (    3375)
        Each G-vector array             0.01 Mb     (    1243)
        G-vector shells                 0.00 Mb     (      39)
     Largest temporary arrays     est. size (Mb)     dimensions
        Auxiliary wavefunctions         0.04 Mb     (     159,   16)
        Each subspace H/S matrix        0.00 Mb     (      16,   16)
        Each <psi_i|beta_j> matrix      0.00 Mb     (      10,    4)
        Arrays for rho mixing           0.41 Mb     (    3375,    8)

     Initial potential from superposition of free atoms

     starting charge    7.99889, renormalised to    8.00000
     Starting wfc are    8 randomized atomic wfcs

     total cpu time spent up to now is        0.3 secs

     per-process dynamical memory:     4.7 Mb

     Self-consistent Calculation

     iteration #  1     ecut=    10.00 Ry     beta=0.70
     Davidson diagonalization with overlap
     ethr =  1.00E-02,  avg # of iterations =  2.0

     Threshold (ethr) on eigenvalues was too large:
     Diagonalizing with lowered threshold

     Davidson diagonalization with overlap
     ethr =  6.27E-04,  avg # of iterations =  1.1

     total cpu time spent up to now is        0.4 secs

     total energy              =     -15.69571985 Ry
     Harris-Foulkes estimate   =     -15.70513219 Ry
     estimated scf accuracy    <       0.04983050 Ry

     iteration #  2     ecut=    10.00 Ry     beta=0.70
     Davidson diagonalization with overlap
     ethr =  6.23E-04,  avg # of iterations =  1.0

     total cpu time spent up to now is        0.4 secs

     total energy              =     -15.69692176 Ry
     Harris-Foulkes estimate   =     -15.69707446 Ry
     estimated scf accuracy    <       0.00273964 Ry

     iteration #  3     ecut=    10.00 Ry     beta=0.70
     Davidson diagonalization with overlap
     ethr =  3.42E-05,  avg # of iterations =  1.7

     total cpu time spent up to now is        0.5 secs

     total energy              =     -15.69713030 Ry
     Harris-Foulkes estimate   =     -15.69713537 Ry
     estimated scf accuracy    <       0.00002864 Ry

     iteration #  4     ecut=    10.00 Ry     beta=0.70
     Davidson diagonalization with overlap
     ethr =  3.58E-07,  avg # of iterations =  3.5

     total cpu time spent up to now is        0.6 secs

     total energy              =     -15.69716441 Ry
     Harris-Foulkes estimate   =     -15.69716504 Ry
     estimated scf accuracy    <       0.00000137 Ry

     iteration #  5     ecut=    10.00 Ry     beta=0.70
     Davidson diagonalization with overlap
     ethr =  1.71E-08,  avg # of iterations =  2.0

     total cpu time spent up to now is        0.7 secs

     End of self-consistent calculation

          k =-0.1250 0.1250 0.1250 (   159 PWs)   bands (ev):

    -5.6733   4.0208   5.2920   5.2920

          k =-0.3750 0.3750-0.1250 (   150 PWs)   bands (ev):

    -4.6631   1.1416   3.4039   4.8251

          k = 0.3750-0.3750 0.6250 (   157 PWs)   bands (ev):

    -3.5873  -0.8583   3.4057   4.0868

          k = 0.1250-0.1250 0.3750 (   157 PWs)   bands (ev):

    -5.1611   2.4534   4.3309   4.3869

          k =-0.1250 0.6250 0.1250 (   153 PWs)   bands (ev):

    -4.1550   0.7994   3.0694   3.4892

          k = 0.6250-0.1250 0.8750 (   157 PWs)   bands (ev):

    -2.5896  -1.1129   1.7872   2.8050

          k = 0.3750 0.1250 0.6250 (   153 PWs)   bands (ev):

    -3.7576  -0.0305   2.4547   3.7583

          k =-0.1250-0.8750 0.1250 (   154 PWs)   bands (ev):

    -2.7424  -0.9937   2.3603   3.0384

          k =-0.3750 0.3750 0.3750 (   153 PWs)   bands (ev):

    -4.2668  -0.0859   4.5280   4.5280

          k = 0.3750-0.3750 1.1250 (   156 PWs)   bands (ev):

    -3.1122  -0.7954   1.8344   3.7833

     highest occupied level (ev):     5.2920

!    total energy              =     -15.69716461 Ry
     Harris-Foulkes estimate   =     -15.69716467 Ry
     estimated scf accuracy    <       0.00000014 Ry

     The total energy is the sum of the following terms:

     one-electron contribution =       4.31262768 Ry
     hartree contribution      =       1.13841539 Ry
     xc contribution           =      -4.73129935 Ry
     ewald contribution        =     -16.41690833 Ry

     convergence has been achieved in   5 iterations

     Writing output data file Si_exc1.save

     init_run     :      0.10s CPU      0.18s WALL (       1 calls)
     electrons    :      0.17s CPU      0.39s WALL (       1 calls)

     Called by init_run:
     wfcinit      :      0.02s CPU      0.02s WALL (       1 calls)
     potinit      :      0.01s CPU      0.01s WALL (       1 calls)

     Called by electrons:
     c_bands      :      0.13s CPU      0.29s WALL (       6 calls)
     sum_band     :      0.02s CPU      0.04s WALL (       6 calls)
     v_of_rho     :      0.02s CPU      0.04s WALL (       6 calls)
     mix_rho      :      0.00s CPU      0.00s WALL (       6 calls)

     Called by c_bands:
     init_us_2    :      0.01s CPU      0.01s WALL (     130 calls)
     cegterg      :      0.12s CPU      0.28s WALL (      60 calls)

     Called by *egterg:
     h_psi        :      0.09s CPU      0.20s WALL (     183 calls)
     g_psi        :      0.00s CPU      0.00s WALL (     113 calls)
     cdiaghg      :      0.01s CPU      0.03s WALL (     163 calls)

     Called by h_psi:
     add_vuspsi   :      0.01s CPU      0.02s WALL (     183 calls)

     General routines
     calbec       :      0.01s CPU      0.01s WALL (     183 calls)
     fft          :      0.00s CPU      0.01s WALL (      67 calls)
     fftw         :      0.07s CPU      0.13s WALL (    1674 calls)
     davcio       :      0.00s CPU      0.00s WALL (      10 calls)

     Parallel routines
     fft_scatter  :      0.01s CPU      0.02s WALL (    1741 calls)

     PWSCF        :     0.60s CPU         1.07s WALL


   This run was terminated on:  12: 2:26   2May2022            

=------------------------------------------------------------------------------=
   JOB DONE.
=------------------------------------------------------------------------------=
