
     Program PWSCF v.5.1 starts on  2May2022 at 12:35:31 

     This program is part of the open-source Quantum ESPRESSO suite
     for quantum simulation of materials; please cite
         "P. Giannozzi et al., J. Phys.:Condens. Matter 21 395502 (2009);
          URL http://www.quantum-espresso.org", 
     in publications or presentations arising from this work. More details at
     http://www.quantum-espresso.org/quote

     Parallel version (MPI), running on     1 processors
     Waiting for input...
     Reading input from standard input

     Current dimensions of program PWSCF are:
     Max number of different atomic species (ntypx) = 10
     Max number of k-points (npk) =  40000
     Max angular momentum in pseudopotentials (lmaxx) =  3

     Subspace diagonalization in iterative solution of the eigenvalue problem:
     a serial algorithm will be used


     G-vector sticks info
     --------------------
     sticks:   dense  smooth     PW     G-vecs:    dense   smooth      PW
     Sum         253     253     91                 2733     2733     609



     bravais-lattice index     =            2
     lattice parameter (alat)  =      10.5000  a.u.
     unit-cell volume          =     289.4062 (a.u.)^3
     number of atoms/cell      =            2
     number of atomic types    =            1
     number of electrons       =         8.00
     number of Kohn-Sham states=            4
     kinetic-energy cutoff     =      17.0000  Ry
     charge density cutoff     =      68.0000  Ry
     convergence threshold     =      1.0E-06
     mixing beta               =       0.7000
     number of iterations used =            8  plain     mixing
     Exchange-correlation      =  SLA  PW   PBE  PBE ( 1  4  3  4 0)

     celldm(1)=  10.500000  celldm(2)=   0.000000  celldm(3)=   0.000000
     celldm(4)=   0.000000  celldm(5)=   0.000000  celldm(6)=   0.000000

     crystal axes: (cart. coord. in units of alat)
               a(1) = (  -0.500000   0.000000   0.500000 )  
               a(2) = (   0.000000   0.500000   0.500000 )  
               a(3) = (  -0.500000   0.500000   0.000000 )  

     reciprocal axes: (cart. coord. in units 2 pi/alat)
               b(1) = ( -1.000000 -1.000000  1.000000 )  
               b(2) = (  1.000000  1.000000  1.000000 )  
               b(3) = ( -1.000000  1.000000 -1.000000 )  


     PseudoPot. # 1 for Si read from file:
     ./Si.pbe-rrkj.UPF
     MD5 check sum: cf7ab5690cd9a85b22c4813f7e365554
     Pseudo is Norm-conserving, Zval =  4.0
     Generated by new atomic code, or converted to UPF format
     Using radial grid of  883 points,  3 beta functions with: 
                l(1) =   0
                l(2) =   0
                l(3) =   1

     atomic species   valence    mass     pseudopotential
        Si             4.00    28.08600     Si( 1.00)

     48 Sym. Ops., with inversion, found (24 have fractional translation)



   Cartesian axes

     site n.     atom                  positions (alat units)
         1           Si  tau(   1) = (   0.0000000   0.0000000   0.0000000  )
         2           Si  tau(   2) = (   0.2500000   0.2500000   0.2500000  )

     number of k points=    28
                       cart. coord. in units 2pi/alat
        k(    1) = (  -0.0833333   0.0833333   0.0833333), wk =   0.0185185
        k(    2) = (  -0.2500000   0.2500000  -0.0833333), wk =   0.0555556
        k(    3) = (  -0.4166667   0.4166667  -0.2500000), wk =   0.0555556
        k(    4) = (   0.4166667  -0.4166667   0.5833333), wk =   0.0555556
        k(    5) = (   0.2500000  -0.2500000   0.4166667), wk =   0.0555556
        k(    6) = (   0.0833333  -0.0833333   0.2500000), wk =   0.0555556
        k(    7) = (  -0.0833333   0.4166667   0.0833333), wk =   0.0555556
        k(    8) = (  -0.2500000   0.5833333  -0.0833333), wk =   0.1111111
        k(    9) = (   0.5833333  -0.2500000   0.7500000), wk =   0.1111111
        k(   10) = (   0.4166667  -0.0833333   0.5833333), wk =   0.1111111
        k(   11) = (   0.2500000   0.0833333   0.4166667), wk =   0.1111111
        k(   12) = (  -0.0833333   0.7500000   0.0833333), wk =   0.0555556
        k(   13) = (   0.7500000  -0.0833333   0.9166667), wk =   0.1111111
        k(   14) = (   0.5833333   0.0833333   0.7500000), wk =   0.1111111
        k(   15) = (   0.4166667   0.2500000   0.5833333), wk =   0.1111111
        k(   16) = (  -0.0833333  -0.9166667   0.0833333), wk =   0.0555556
        k(   17) = (  -0.2500000  -0.7500000  -0.0833333), wk =   0.1111111
        k(   18) = (  -0.0833333  -0.5833333   0.0833333), wk =   0.0555556
        k(   19) = (  -0.2500000   0.2500000   0.2500000), wk =   0.0185185
        k(   20) = (  -0.4166667   0.4166667   0.0833333), wk =   0.0555556
        k(   21) = (   0.4166667  -0.4166667   0.9166667), wk =   0.0555556
        k(   22) = (   0.2500000  -0.2500000   0.7500000), wk =   0.0555556
        k(   23) = (  -0.2500000   0.5833333   0.2500000), wk =   0.0555556
        k(   24) = (   0.5833333  -0.2500000   1.0833333), wk =   0.1111111
        k(   25) = (   0.4166667  -0.0833333   0.9166667), wk =   0.1111111
        k(   26) = (  -0.2500000  -1.0833333   0.2500000), wk =   0.0555556
        k(   27) = (  -0.4166667   0.4166667   0.4166667), wk =   0.0185185
        k(   28) = (   0.4166667  -0.4166667   1.2500000), wk =   0.0555556

     Dense  grid:     2733 G-vectors     FFT dimensions: (  20,  20,  20)

     Largest allocated arrays     est. size (Mb)     dimensions
        Kohn-Sham Wavefunctions         0.02 Mb     (     349,    4)
        NL pseudopotentials             0.05 Mb     (     349,   10)
        Each V/rho on FFT grid          0.12 Mb     (    8000)
        Each G-vector array             0.02 Mb     (    2733)
        G-vector shells                 0.00 Mb     (      65)
     Largest temporary arrays     est. size (Mb)     dimensions
        Auxiliary wavefunctions         0.09 Mb     (     349,   16)
        Each subspace H/S matrix        0.00 Mb     (      16,   16)
        Each <psi_i|beta_j> matrix      0.00 Mb     (      10,    4)
        Arrays for rho mixing           0.98 Mb     (    8000,    8)

     Initial potential from superposition of free atoms

     starting charge    7.99889, renormalised to    8.00000
     Starting wfc are    8 randomized atomic wfcs

     total cpu time spent up to now is        0.5 secs

     per-process dynamical memory:     6.0 Mb

     Self-consistent Calculation

     iteration #  1     ecut=    17.00 Ry     beta=0.70
     Davidson diagonalization with overlap
     ethr =  1.00E-02,  avg # of iterations =  2.0

     Threshold (ethr) on eigenvalues was too large:
     Diagonalizing with lowered threshold

     Davidson diagonalization with overlap
     ethr =  6.16E-04,  avg # of iterations =  1.8

     total cpu time spent up to now is        0.9 secs

     total energy              =     -15.73645099 Ry
     Harris-Foulkes estimate   =     -15.74745317 Ry
     estimated scf accuracy    <       0.05135073 Ry

     iteration #  2     ecut=    17.00 Ry     beta=0.70
     Davidson diagonalization with overlap
     ethr =  6.42E-04,  avg # of iterations =  1.0

     total cpu time spent up to now is        1.0 secs

     total energy              =     -15.73803484 Ry
     Harris-Foulkes estimate   =     -15.73811390 Ry
     estimated scf accuracy    <       0.00269860 Ry

     iteration #  3     ecut=    17.00 Ry     beta=0.70
     Davidson diagonalization with overlap
     ethr =  3.37E-05,  avg # of iterations =  2.3

     total cpu time spent up to now is        1.2 secs

     total energy              =     -15.73838258 Ry
     Harris-Foulkes estimate   =     -15.73840325 Ry
     estimated scf accuracy    <       0.00005845 Ry

     iteration #  4     ecut=    17.00 Ry     beta=0.70
     Davidson diagonalization with overlap
     ethr =  7.31E-07,  avg # of iterations =  2.8

     total cpu time spent up to now is        1.3 secs

     total energy              =     -15.73841409 Ry
     Harris-Foulkes estimate   =     -15.73841470 Ry
     estimated scf accuracy    <       0.00000229 Ry

     iteration #  5     ecut=    17.00 Ry     beta=0.70
     Davidson diagonalization with overlap
     ethr =  2.87E-08,  avg # of iterations =  2.6

     total cpu time spent up to now is        1.5 secs

     End of self-consistent calculation

          k =-0.0833 0.0833 0.0833 (   335 PWs)   bands (ev):

    -5.8284   4.6886   5.4068   5.4068

          k =-0.2500 0.2500-0.0833 (   339 PWs)   bands (ev):

    -5.3783   2.6736   4.2491   5.2005

          k =-0.4167 0.4167-0.2500 (   346 PWs)   bands (ev):

    -4.3531   0.0620   3.7921   4.5979

          k = 0.4167-0.4167 0.5833 (   344 PWs)   bands (ev):

    -3.7093  -1.0047   3.8453   4.2429

          k = 0.2500-0.2500 0.4167 (   344 PWs)   bands (ev):

    -4.7380   0.8600   4.3073   4.3162

          k = 0.0833-0.0833 0.2500 (   335 PWs)   bands (ev):

    -5.6010   3.6379   4.8061   4.9614

          k =-0.0833 0.4167 0.0833 (   340 PWs)   bands (ev):

    -5.1503   2.4542   4.0919   4.1189

          k =-0.2500 0.5833-0.0833 (   339 PWs)   bands (ev):

    -4.2927   0.6987   2.8634   3.7508

          k = 0.5833-0.2500 0.7500 (   349 PWs)   bands (ev):

    -3.2565  -0.9270   2.2803   3.5420

          k = 0.4167-0.0833 0.5833 (   343 PWs)   bands (ev):

    -3.9247   0.0527   2.2606   3.9927

          k = 0.2500 0.0833 0.4167 (   337 PWs)   bands (ev):

    -4.9382   1.6794   3.5172   4.6110

          k =-0.0833 0.7500 0.0833 (   335 PWs)   bands (ev):

    -3.6193  -0.1143   2.8355   3.1447

          k = 0.7500-0.0833 0.9167 (   345 PWs)   bands (ev):

    -2.4981  -1.3855   2.0593   2.7732

          k = 0.5833 0.0833 0.7500 (   347 PWs)   bands (ev):

    -2.8596  -1.0444   1.6030   3.2837

          k = 0.4167 0.2500 0.5833 (   344 PWs)   bands (ev):

    -3.8252  -0.5526   3.1160   4.0808

          k =-0.0833-0.9167 0.0833 (   342 PWs)   bands (ev):

    -2.5783  -1.3904   2.5820   2.9399

          k =-0.2500-0.7500-0.0833 (   341 PWs)   bands (ev):

    -3.4641  -0.3211   2.3515   3.0940

          k =-0.0833-0.5833 0.0833 (   339 PWs)   bands (ev):

    -4.4847   1.1893   3.3430   3.5448

          k =-0.2500 0.2500 0.2500 (   344 PWs)   bands (ev):

    -5.1622   1.7566   4.8249   4.8249

          k =-0.4167 0.4167 0.0833 (   340 PWs)   bands (ev):

    -4.5229   0.8341   2.8286   4.6607

          k = 0.4167-0.4167 0.9167 (   343 PWs)   bands (ev):

    -3.4201  -0.5504   1.7974   3.9262

          k = 0.2500-0.2500 0.7500 (   346 PWs)   bands (ev):

    -3.3683  -0.6274   2.2371   3.4756

          k =-0.2500 0.5833 0.2500 (   340 PWs)   bands (ev):

    -4.1252   0.0779   3.2391   3.8275

          k = 0.5833-0.2500 1.0833 (   344 PWs)   bands (ev):

    -3.1854  -0.6784   1.8944   3.0984

          k = 0.4167-0.0833 0.9167 (   346 PWs)   bands (ev):

    -2.4060  -1.3931   1.7549   2.4790

          k =-0.2500-1.0833 0.2500 (   347 PWs)   bands (ev):

    -2.6060  -1.2898   1.6365   3.2919

          k =-0.4167 0.4167 0.4167 (   347 PWs)   bands (ev):

    -4.0495  -0.6292   4.4516   4.4516

          k = 0.4167-0.4167 1.2500 (   344 PWs)   bands (ev):

    -3.4858  -0.9314   2.7190   4.0442

     highest occupied level (ev):     5.4068

!    total energy              =     -15.73841482 Ry
     Harris-Foulkes estimate   =     -15.73841487 Ry
     estimated scf accuracy    <       0.00000013 Ry

     The total energy is the sum of the following terms:

     one-electron contribution =       4.26512474 Ry
     hartree contribution      =       1.15351075 Ry
     xc contribution           =      -4.74014193 Ry
     ewald contribution        =     -16.41690838 Ry

     convergence has been achieved in   5 iterations

     Writing output data file Si_exc1.save

     init_run     :      0.20s CPU      0.39s WALL (       1 calls)
     electrons    :      0.80s CPU      0.99s WALL (       1 calls)

     Called by init_run:
     wfcinit      :      0.09s CPU      0.15s WALL (       1 calls)
     potinit      :      0.01s CPU      0.02s WALL (       1 calls)

     Called by electrons:
     c_bands      :      0.64s CPU      0.76s WALL (       6 calls)
     sum_band     :      0.11s CPU      0.19s WALL (       6 calls)
     v_of_rho     :      0.04s CPU      0.05s WALL (       6 calls)
     mix_rho      :      0.00s CPU      0.00s WALL (       6 calls)

     Called by c_bands:
     init_us_2    :      0.05s CPU      0.08s WALL (     364 calls)
     cegterg      :      0.60s CPU      0.69s WALL (     168 calls)

     Called by *egterg:
     h_psi        :      0.50s CPU      0.61s WALL (     546 calls)
     g_psi        :      0.01s CPU      0.01s WALL (     350 calls)
     cdiaghg      :      0.04s CPU      0.05s WALL (     490 calls)

     Called by h_psi:
     add_vuspsi   :      0.04s CPU      0.05s WALL (     546 calls)

     General routines
     calbec       :      0.04s CPU      0.04s WALL (     546 calls)
     fft          :      0.01s CPU      0.02s WALL (      67 calls)
     fftw         :      0.35s CPU      0.45s WALL (    4702 calls)
     davcio       :      0.00s CPU      0.00s WALL (      28 calls)

     Parallel routines
     fft_scatter  :      0.08s CPU      0.10s WALL (    4769 calls)

     PWSCF        :     1.53s CPU         2.13s WALL


   This run was terminated on:  12:35:33   2May2022            

=------------------------------------------------------------------------------=
   JOB DONE.
=------------------------------------------------------------------------------=
