
     Program PWSCF v.5.1 starts on  2May2022 at 12:36: 2 

     This program is part of the open-source Quantum ESPRESSO suite
     for quantum simulation of materials; please cite
         "P. Giannozzi et al., J. Phys.:Condens. Matter 21 395502 (2009);
          URL http://www.quantum-espresso.org", 
     in publications or presentations arising from this work. More details at
     http://www.quantum-espresso.org/quote

     Parallel version (MPI), running on     1 processors
     Waiting for input...
     Reading input from standard input

     Current dimensions of program PWSCF are:
     Max number of different atomic species (ntypx) = 10
     Max number of k-points (npk) =  40000
     Max angular momentum in pseudopotentials (lmaxx) =  3

     Subspace diagonalization in iterative solution of the eigenvalue problem:
     a serial algorithm will be used


     G-vector sticks info
     --------------------
     sticks:   dense  smooth     PW     G-vecs:    dense   smooth      PW
     Sum         253     253     91                 2733     2733     609



     bravais-lattice index     =            2
     lattice parameter (alat)  =      10.5000  a.u.
     unit-cell volume          =     289.4062 (a.u.)^3
     number of atoms/cell      =            2
     number of atomic types    =            1
     number of electrons       =         8.00
     number of Kohn-Sham states=            4
     kinetic-energy cutoff     =      17.0000  Ry
     charge density cutoff     =      68.0000  Ry
     convergence threshold     =      1.0E-06
     mixing beta               =       0.7000
     number of iterations used =            8  plain     mixing
     Exchange-correlation      =  SLA  PW   PBE  PBE ( 1  4  3  4 0)

     celldm(1)=  10.500000  celldm(2)=   0.000000  celldm(3)=   0.000000
     celldm(4)=   0.000000  celldm(5)=   0.000000  celldm(6)=   0.000000

     crystal axes: (cart. coord. in units of alat)
               a(1) = (  -0.500000   0.000000   0.500000 )  
               a(2) = (   0.000000   0.500000   0.500000 )  
               a(3) = (  -0.500000   0.500000   0.000000 )  

     reciprocal axes: (cart. coord. in units 2 pi/alat)
               b(1) = ( -1.000000 -1.000000  1.000000 )  
               b(2) = (  1.000000  1.000000  1.000000 )  
               b(3) = ( -1.000000  1.000000 -1.000000 )  


     PseudoPot. # 1 for Si read from file:
     ./Si.pbe-rrkj.UPF
     MD5 check sum: cf7ab5690cd9a85b22c4813f7e365554
     Pseudo is Norm-conserving, Zval =  4.0
     Generated by new atomic code, or converted to UPF format
     Using radial grid of  883 points,  3 beta functions with: 
                l(1) =   0
                l(2) =   0
                l(3) =   1

     atomic species   valence    mass     pseudopotential
        Si             4.00    28.08600     Si( 1.00)

     48 Sym. Ops., with inversion, found (24 have fractional translation)



   Cartesian axes

     site n.     atom                  positions (alat units)
         1           Si  tau(   1) = (   0.0000000   0.0000000   0.0000000  )
         2           Si  tau(   2) = (   0.2500000   0.2500000   0.2500000  )

     number of k points=    60
                       cart. coord. in units 2pi/alat
        k(    1) = (  -0.0625000   0.0625000   0.0625000), wk =   0.0078125
        k(    2) = (  -0.1875000   0.1875000  -0.0625000), wk =   0.0234375
        k(    3) = (  -0.3125000   0.3125000  -0.1875000), wk =   0.0234375
        k(    4) = (  -0.4375000   0.4375000  -0.3125000), wk =   0.0234375
        k(    5) = (   0.4375000  -0.4375000   0.5625000), wk =   0.0234375
        k(    6) = (   0.3125000  -0.3125000   0.4375000), wk =   0.0234375
        k(    7) = (   0.1875000  -0.1875000   0.3125000), wk =   0.0234375
        k(    8) = (   0.0625000  -0.0625000   0.1875000), wk =   0.0234375
        k(    9) = (  -0.0625000   0.3125000   0.0625000), wk =   0.0234375
        k(   10) = (  -0.1875000   0.4375000  -0.0625000), wk =   0.0468750
        k(   11) = (  -0.3125000   0.5625000  -0.1875000), wk =   0.0468750
        k(   12) = (   0.5625000  -0.3125000   0.6875000), wk =   0.0468750
        k(   13) = (   0.4375000  -0.1875000   0.5625000), wk =   0.0468750
        k(   14) = (   0.3125000  -0.0625000   0.4375000), wk =   0.0468750
        k(   15) = (   0.1875000   0.0625000   0.3125000), wk =   0.0468750
        k(   16) = (  -0.0625000   0.5625000   0.0625000), wk =   0.0234375
        k(   17) = (  -0.1875000   0.6875000  -0.0625000), wk =   0.0468750
        k(   18) = (   0.6875000  -0.1875000   0.8125000), wk =   0.0468750
        k(   19) = (   0.5625000  -0.0625000   0.6875000), wk =   0.0468750
        k(   20) = (   0.4375000   0.0625000   0.5625000), wk =   0.0468750
        k(   21) = (   0.3125000   0.1875000   0.4375000), wk =   0.0468750
        k(   22) = (  -0.0625000   0.8125000   0.0625000), wk =   0.0234375
        k(   23) = (   0.8125000  -0.0625000   0.9375000), wk =   0.0468750
        k(   24) = (   0.6875000   0.0625000   0.8125000), wk =   0.0468750
        k(   25) = (   0.5625000   0.1875000   0.6875000), wk =   0.0468750
        k(   26) = (   0.4375000   0.3125000   0.5625000), wk =   0.0468750
        k(   27) = (  -0.0625000  -0.9375000   0.0625000), wk =   0.0234375
        k(   28) = (  -0.1875000  -0.8125000  -0.0625000), wk =   0.0468750
        k(   29) = (  -0.3125000  -0.6875000  -0.1875000), wk =   0.0468750
        k(   30) = (  -0.0625000  -0.6875000   0.0625000), wk =   0.0234375
        k(   31) = (  -0.1875000  -0.5625000  -0.0625000), wk =   0.0468750
        k(   32) = (  -0.0625000  -0.4375000   0.0625000), wk =   0.0234375
        k(   33) = (  -0.1875000   0.1875000   0.1875000), wk =   0.0078125
        k(   34) = (  -0.3125000   0.3125000   0.0625000), wk =   0.0234375
        k(   35) = (  -0.4375000   0.4375000  -0.0625000), wk =   0.0234375
        k(   36) = (   0.4375000  -0.4375000   0.8125000), wk =   0.0234375
        k(   37) = (   0.3125000  -0.3125000   0.6875000), wk =   0.0234375
        k(   38) = (   0.1875000  -0.1875000   0.5625000), wk =   0.0234375
        k(   39) = (  -0.1875000   0.4375000   0.1875000), wk =   0.0234375
        k(   40) = (  -0.3125000   0.5625000   0.0625000), wk =   0.0468750
        k(   41) = (   0.5625000  -0.3125000   0.9375000), wk =   0.0468750
        k(   42) = (   0.4375000  -0.1875000   0.8125000), wk =   0.0468750
        k(   43) = (   0.3125000  -0.0625000   0.6875000), wk =   0.0468750
        k(   44) = (  -0.1875000   0.6875000   0.1875000), wk =   0.0234375
        k(   45) = (   0.6875000  -0.1875000   1.0625000), wk =   0.0468750
        k(   46) = (   0.5625000  -0.0625000   0.9375000), wk =   0.0468750
        k(   47) = (   0.4375000   0.0625000   0.8125000), wk =   0.0468750
        k(   48) = (  -0.1875000  -1.0625000   0.1875000), wk =   0.0234375
        k(   49) = (  -0.3125000  -0.9375000   0.0625000), wk =   0.0468750
        k(   50) = (  -0.1875000  -0.8125000   0.1875000), wk =   0.0234375
        k(   51) = (  -0.3125000   0.3125000   0.3125000), wk =   0.0078125
        k(   52) = (  -0.4375000   0.4375000   0.1875000), wk =   0.0234375
        k(   53) = (   0.4375000  -0.4375000   1.0625000), wk =   0.0234375
        k(   54) = (   0.3125000  -0.3125000   0.9375000), wk =   0.0234375
        k(   55) = (  -0.3125000   0.5625000   0.3125000), wk =   0.0234375
        k(   56) = (   0.5625000  -0.3125000   1.1875000), wk =   0.0468750
        k(   57) = (   0.4375000  -0.1875000   1.0625000), wk =   0.0468750
        k(   58) = (  -0.3125000  -1.1875000   0.3125000), wk =   0.0234375
        k(   59) = (  -0.4375000   0.4375000   0.4375000), wk =   0.0078125
        k(   60) = (   0.4375000  -0.4375000   1.3125000), wk =   0.0234375

     Dense  grid:     2733 G-vectors     FFT dimensions: (  20,  20,  20)

     Largest allocated arrays     est. size (Mb)     dimensions
        Kohn-Sham Wavefunctions         0.02 Mb     (     349,    4)
        NL pseudopotentials             0.05 Mb     (     349,   10)
        Each V/rho on FFT grid          0.12 Mb     (    8000)
        Each G-vector array             0.02 Mb     (    2733)
        G-vector shells                 0.00 Mb     (      65)
     Largest temporary arrays     est. size (Mb)     dimensions
        Auxiliary wavefunctions         0.09 Mb     (     349,   16)
        Each subspace H/S matrix        0.00 Mb     (      16,   16)
        Each <psi_i|beta_j> matrix      0.00 Mb     (      10,    4)
        Arrays for rho mixing           0.98 Mb     (    8000,    8)

     Initial potential from superposition of free atoms

     starting charge    7.99889, renormalised to    8.00000
     Starting wfc are    8 randomized atomic wfcs

     total cpu time spent up to now is        0.6 secs

     per-process dynamical memory:     6.8 Mb

     Self-consistent Calculation

     iteration #  1     ecut=    17.00 Ry     beta=0.70
     Davidson diagonalization with overlap
     ethr =  1.00E-02,  avg # of iterations =  2.0

     Threshold (ethr) on eigenvalues was too large:
     Diagonalizing with lowered threshold

     Davidson diagonalization with overlap
     ethr =  6.19E-04,  avg # of iterations =  1.8

     total cpu time spent up to now is        1.3 secs

     total energy              =     -15.73644882 Ry
     Harris-Foulkes estimate   =     -15.74745012 Ry
     estimated scf accuracy    <       0.05135395 Ry

     iteration #  2     ecut=    17.00 Ry     beta=0.70
     Davidson diagonalization with overlap
     ethr =  6.42E-04,  avg # of iterations =  1.0

     total cpu time spent up to now is        1.5 secs

     total energy              =     -15.73802727 Ry
     Harris-Foulkes estimate   =     -15.73810730 Ry
     estimated scf accuracy    <       0.00270004 Ry

     iteration #  3     ecut=    17.00 Ry     beta=0.70
     Davidson diagonalization with overlap
     ethr =  3.38E-05,  avg # of iterations =  2.3

     total cpu time spent up to now is        1.8 secs

     total energy              =     -15.73837911 Ry
     Harris-Foulkes estimate   =     -15.73840153 Ry
     estimated scf accuracy    <       0.00006118 Ry

     iteration #  4     ecut=    17.00 Ry     beta=0.70
     Davidson diagonalization with overlap
     ethr =  7.65E-07,  avg # of iterations =  2.7

     total cpu time spent up to now is        2.2 secs

     total energy              =     -15.73840928 Ry
     Harris-Foulkes estimate   =     -15.73841036 Ry
     estimated scf accuracy    <       0.00000352 Ry

     iteration #  5     ecut=    17.00 Ry     beta=0.70
     Davidson diagonalization with overlap
     ethr =  4.41E-08,  avg # of iterations =  2.4

     total cpu time spent up to now is        2.5 secs

     End of self-consistent calculation

          k =-0.0625 0.0625 0.0625 (   332 PWs)   bands (ev):

    -5.8657   5.0099   5.4621   5.4621

          k =-0.1875 0.1875-0.0625 (   335 PWs)   bands (ev):

    -5.6104   3.5393   4.7023   5.3458

          k =-0.3125 0.3125-0.1875 (   342 PWs)   bands (ev):

    -4.9953   1.4097   4.2295   4.9049

          k =-0.4375 0.4375-0.3125 (   346 PWs)   bands (ev):

    -4.1430  -0.3846   4.0161   4.5157

          k = 0.4375-0.4375 0.5625 (   342 PWs)   bands (ev):

    -3.7257  -1.0423   4.0589   4.3104

          k = 0.3125-0.3125 0.4375 (   345 PWs)   bands (ev):

    -4.4337   0.1440   4.3314   4.3343

          k = 0.1875-0.1875 0.3125 (   338 PWs)   bands (ev):

    -5.2362   2.1071   4.6019   4.7768

          k = 0.0625-0.0625 0.1875 (   334 PWs)   bands (ev):

    -5.7374   4.2654   5.0623   5.2016

          k =-0.0625 0.3125 0.0625 (   338 PWs)   bands (ev):

    -5.4819   3.3788   4.5347   4.6016

          k =-0.1875 0.4375-0.0625 (   336 PWs)   bands (ev):

    -4.9827   1.9335   3.6138   4.3563

          k =-0.3125 0.5625-0.1875 (   340 PWs)   bands (ev):

    -4.1817   0.1739   3.1257   3.9711

          k = 0.5625-0.3125 0.6875 (   348 PWs)   bands (ev):

    -3.4691  -0.9634   2.8456   3.8841

          k = 0.4375-0.1875 0.5625 (   343 PWs)   bands (ev):

    -3.8961  -0.3159   2.7833   4.1510

          k = 0.3125-0.0625 0.4375 (   337 PWs)   bands (ev):

    -4.7474   1.3170   3.0883   4.6296

          k = 0.1875 0.0625 0.3125 (   339 PWs)   bands (ev):

    -5.3578   2.7423   4.1555   4.9818

          k =-0.0625 0.5625 0.0625 (   341 PWs)   bands (ev):

    -4.6009   1.4220   3.4777   3.5915

          k =-0.1875 0.6875-0.0625 (   338 PWs)   bands (ev):

    -3.8863   0.2395   2.7368   3.2652

          k = 0.6875-0.1875 0.8125 (   347 PWs)   bands (ev):

    -3.0403  -0.8910   1.9427   3.2344

          k = 0.5625-0.0625 0.6875 (   346 PWs)   bands (ev):

    -3.1104  -0.7996   1.6137   3.5593

          k = 0.4375 0.0625 0.5625 (   342 PWs)   bands (ev):

    -3.9562   0.1194   2.1787   4.1105

          k = 0.3125 0.1875 0.4375 (   341 PWs)   bands (ev):

    -4.6406   0.7606   3.7094   4.5338

          k =-0.0625 0.8125 0.0625 (   337 PWs)   bands (ev):

    -3.2633  -0.5880   2.8250   3.0250

          k = 0.8125-0.0625 0.9375 (   345 PWs)   bands (ev):

    -2.4005  -1.5325   2.3061   2.7994

          k = 0.6875 0.0625 0.8125 (   345 PWs)   bands (ev):

    -2.5029  -1.3676   1.6250   3.0979

          k = 0.5625 0.1875 0.6875 (   346 PWs)   bands (ev):

    -3.2249  -0.9395   2.1193   3.6665

          k = 0.4375 0.3125 0.5625 (   343 PWs)   bands (ev):

    -3.8015  -0.7694   3.5343   4.2172

          k =-0.0625-0.9375 0.0625 (   342 PWs)   bands (ev):

    -2.4467  -1.5476   2.6938   2.9089

          k =-0.1875-0.8125-0.0625 (   340 PWs)   bands (ev):

    -3.1838  -0.6498   2.4537   2.9520

          k =-0.3125-0.6875-0.1875 (   339 PWs)   bands (ev):

    -3.6363  -0.3664   2.4943   3.5189

          k =-0.0625-0.6875 0.0625 (   333 PWs)   bands (ev):

    -3.9851   0.4104   3.0871   3.2546

          k =-0.1875-0.5625-0.0625 (   336 PWs)   bands (ev):

    -4.4897   1.1032   3.1320   3.7447

          k =-0.0625-0.4375 0.0625 (   342 PWs)   bands (ev):

    -5.1017   2.4207   3.9912   4.0260

          k =-0.1875 0.1875 0.1875 (   335 PWs)   bands (ev):

    -5.4851   2.8522   5.0427   5.0427

          k =-0.3125 0.3125 0.0625 (   336 PWs)   bands (ev):

    -5.1116   2.0236   3.6132   5.0530

          k =-0.4375 0.4375-0.0625 (   340 PWs)   bands (ev):

    -4.4018   0.7016   2.5873   4.5753

          k = 0.4375-0.4375 0.8125 (   348 PWs)   bands (ev):

    -3.5589  -0.7016   2.4258   4.0720

          k = 0.3125-0.3125 0.6875 (   345 PWs)   bands (ev):

    -3.5435  -0.7291   2.7054   3.7722

          k = 0.1875-0.1875 0.5625 (   339 PWs)   bands (ev):

    -4.3848   0.6987   3.2911   3.7527

          k =-0.1875 0.4375 0.1875 (   336 PWs)   bands (ev):

    -4.8673   1.3914   4.0708   4.1513

          k =-0.3125 0.5625 0.0625 (   340 PWs)   bands (ev):

    -4.2718   0.6276   2.6413   3.9641

          k = 0.5625-0.3125 0.9375 (   344 PWs)   bands (ev):

    -3.4280  -0.4333   1.8970   3.4322

          k = 0.4375-0.1875 0.8125 (   348 PWs)   bands (ev):

    -2.9703  -1.0095   1.8926   3.1393

          k = 0.3125-0.0625 0.6875 (   338 PWs)   bands (ev):

    -3.6954  -0.0647   2.2990   3.3070

          k =-0.1875 0.6875 0.1875 (   338 PWs)   bands (ev):

    -3.7989  -0.0033   2.6099   3.4374

          k = 0.6875-0.1875 1.0625 (   344 PWs)   bands (ev):

    -3.0360  -0.7828   2.0728   2.8022

          k = 0.5625-0.0625 0.9375 (   347 PWs)   bands (ev):

    -2.2729  -1.5077   1.7787   2.3326

          k = 0.4375 0.0625 0.8125 (   347 PWs)   bands (ev):

    -2.8453  -0.9769   1.7655   2.7803

          k =-0.1875-1.0625 0.1875 (   345 PWs)   bands (ev):

    -2.4248  -1.4815   1.8758   3.1105

          k =-0.3125-0.9375 0.0625 (   346 PWs)   bands (ev):

    -2.3291  -1.5156   1.9642   2.5303

          k =-0.1875-0.8125 0.1875 (   342 PWs)   bands (ev):

    -3.1279  -0.7421   2.1232   3.2207

          k =-0.3125 0.3125 0.3125 (   344 PWs)   bands (ev):

    -4.7664   0.7409   4.6452   4.6452

          k =-0.4375 0.4375 0.1875 (   346 PWs)   bands (ev):

    -4.3113   0.1789   3.2486   4.5593

          k = 0.4375-0.4375 1.0625 (   343 PWs)   bands (ev):

    -3.5599  -0.3630   1.8204   4.0120

          k = 0.3125-0.3125 0.9375 (   349 PWs)   bands (ev):

    -2.7842  -1.1198   1.5085   3.4939

          k =-0.3125 0.5625 0.3125 (   341 PWs)   bands (ev):

    -4.0146  -0.3499   3.5578   4.0295

          k = 0.5625-0.3125 1.1875 (   346 PWs)   bands (ev):

    -3.4278  -0.7129   2.3264   3.5868

          k = 0.4375-0.1875 1.0625 (   345 PWs)   bands (ev):

    -2.6518  -1.1892   1.5962   2.9159

          k =-0.3125-1.1875 0.3125 (   349 PWs)   bands (ev):

    -3.0895  -0.9876   1.9640   3.5890

          k =-0.4375 0.4375 0.4375 (   341 PWs)   bands (ev):

    -3.9287  -0.8197   4.4308   4.4308

          k = 0.4375-0.4375 1.3125 (   345 PWs)   bands (ev):

    -3.5983  -0.9932   3.2592   4.1801

     highest occupied level (ev):     5.4621

!    total energy              =     -15.73841016 Ry
     Harris-Foulkes estimate   =     -15.73841024 Ry
     estimated scf accuracy    <       0.00000018 Ry

     The total energy is the sum of the following terms:

     one-electron contribution =       4.26516268 Ry
     hartree contribution      =       1.15344329 Ry
     xc contribution           =      -4.74010775 Ry
     ewald contribution        =     -16.41690838 Ry

     convergence has been achieved in   5 iterations

     Writing output data file Si_exc1.save

     init_run     :      0.30s CPU      0.49s WALL (       1 calls)
     electrons    :      1.56s CPU      1.89s WALL (       1 calls)

     Called by init_run:
     wfcinit      :      0.18s CPU      0.32s WALL (       1 calls)
     potinit      :      0.01s CPU      0.01s WALL (       1 calls)

     Called by electrons:
     c_bands      :      1.32s CPU      1.58s WALL (       6 calls)
     sum_band     :      0.20s CPU      0.25s WALL (       6 calls)
     v_of_rho     :      0.04s CPU      0.05s WALL (       6 calls)
     mix_rho      :      0.00s CPU      0.00s WALL (       6 calls)

     Called by c_bands:
     init_us_2    :      0.10s CPU      0.12s WALL (     780 calls)
     cegterg      :      1.23s CPU      1.46s WALL (     360 calls)

     Called by *egterg:
     h_psi        :      1.02s CPU      1.27s WALL (    1151 calls)
     g_psi        :      0.01s CPU      0.01s WALL (     731 calls)
     cdiaghg      :      0.09s CPU      0.11s WALL (    1031 calls)

     Called by h_psi:
     add_vuspsi   :      0.08s CPU      0.11s WALL (    1151 calls)

     General routines
     calbec       :      0.08s CPU      0.10s WALL (    1151 calls)
     fft          :      0.01s CPU      0.01s WALL (      67 calls)
     fftw         :      0.73s CPU      0.92s WALL (    9990 calls)
     davcio       :      0.00s CPU      0.08s WALL (      60 calls)

     Parallel routines
     fft_scatter  :      0.15s CPU      0.17s WALL (   10057 calls)

     PWSCF        :     2.62s CPU         3.53s WALL


   This run was terminated on:  12:36: 6   2May2022            

=------------------------------------------------------------------------------=
   JOB DONE.
=------------------------------------------------------------------------------=
