
     Program PWSCF v.5.1 starts on 10May2022 at  2: 0:13 

     This program is part of the open-source Quantum ESPRESSO suite
     for quantum simulation of materials; please cite
         "P. Giannozzi et al., J. Phys.:Condens. Matter 21 395502 (2009);
          URL http://www.quantum-espresso.org", 
     in publications or presentations arising from this work. More details at
     http://www.quantum-espresso.org/quote

     Parallel version (MPI), running on     1 processors
     Waiting for input...
     Reading input from standard input

     Current dimensions of program PWSCF are:
     Max number of different atomic species (ntypx) = 10
     Max number of k-points (npk) =  40000
     Max angular momentum in pseudopotentials (lmaxx) =  3

     Subspace diagonalization in iterative solution of the eigenvalue problem:
     a serial algorithm will be used

     Found symmetry operation: I + ( -0.5000 -0.5000  0.0000)
     This is a supercell, fractional translations are disabled

     G-vector sticks info
     --------------------
     sticks:   dense  smooth     PW     G-vecs:    dense   smooth      PW
     Sum         673     673    213                13301    13301    2325



     bravais-lattice index     =            1
     lattice parameter (alat)  =      10.3480  a.u.
     unit-cell volume          =    1108.0753 (a.u.)^3
     number of atoms/cell      =            8
     number of atomic types    =            1
     number of electrons       =        32.00
     number of Kohn-Sham states=           16
     kinetic-energy cutoff     =      20.0000  Ry
     charge density cutoff     =      80.0000  Ry
     convergence threshold     =      1.0E-06
     mixing beta               =       0.7000
     number of iterations used =            8  plain     mixing
     Exchange-correlation      =  SLA  PW   PBE  PBE ( 1  4  3  4 0)

     celldm(1)=  10.348000  celldm(2)=   0.000000  celldm(3)=   0.000000
     celldm(4)=   0.000000  celldm(5)=   0.000000  celldm(6)=   0.000000

     crystal axes: (cart. coord. in units of alat)
               a(1) = (   1.000000   0.000000   0.000000 )  
               a(2) = (   0.000000   1.000000   0.000000 )  
               a(3) = (   0.000000   0.000000   1.000000 )  

     reciprocal axes: (cart. coord. in units 2 pi/alat)
               b(1) = (  1.000000  0.000000  0.000000 )  
               b(2) = (  0.000000  1.000000  0.000000 )  
               b(3) = (  0.000000  0.000000  1.000000 )  


     PseudoPot. # 1 for Si read from file:
     ./Si.pbe-rrkj.UPF
     MD5 check sum: cf7ab5690cd9a85b22c4813f7e365554
     Pseudo is Norm-conserving, Zval =  4.0
     Generated by new atomic code, or converted to UPF format
     Using radial grid of  883 points,  3 beta functions with: 
                l(1) =   0
                l(2) =   0
                l(3) =   1

     atomic species   valence    mass     pseudopotential
        Si             4.00    28.08600     Si( 1.00)

     24 Sym. Ops. (no inversion) found



   Cartesian axes

     site n.     atom                  positions (alat units)
         1           Si  tau(   1) = (   0.0000000   0.0000000   0.0000000  )
         2           Si  tau(   2) = (   0.5000000   0.5000000   0.0000000  )
         3           Si  tau(   3) = (   0.0000000   0.5000000   0.5000000  )
         4           Si  tau(   4) = (   0.5000000   0.0000000   0.5000000  )
         5           Si  tau(   5) = (   0.2500000   0.2500000   0.2500000  )
         6           Si  tau(   6) = (   0.7500000   0.7500000   0.2500000  )
         7           Si  tau(   7) = (   0.7500000   0.2500000   0.7500000  )
         8           Si  tau(   8) = (   0.2500000   0.7500000   0.7500000  )

     number of k points=    20
                       cart. coord. in units 2pi/alat
        k(    1) = (   0.0000000   0.0000000   0.0000000), wk =   0.0092593
        k(    2) = (   0.0000000   0.0000000   0.1666667), wk =   0.0555556
        k(    3) = (   0.0000000   0.0000000   0.3333333), wk =   0.0555556
        k(    4) = (   0.0000000   0.0000000  -0.5000000), wk =   0.0277778
        k(    5) = (   0.0000000   0.1666667   0.1666667), wk =   0.1111111
        k(    6) = (   0.0000000   0.1666667   0.3333333), wk =   0.2222222
        k(    7) = (   0.0000000   0.1666667  -0.5000000), wk =   0.1111111
        k(    8) = (   0.0000000   0.3333333   0.3333333), wk =   0.1111111
        k(    9) = (   0.0000000   0.3333333  -0.5000000), wk =   0.1111111
        k(   10) = (   0.0000000  -0.5000000  -0.5000000), wk =   0.0277778
        k(   11) = (   0.1666667   0.1666667   0.1666667), wk =   0.0740741
        k(   12) = (   0.1666667   0.1666667   0.3333333), wk =   0.2222222
        k(   13) = (   0.1666667   0.1666667  -0.5000000), wk =   0.1111111
        k(   14) = (   0.1666667   0.3333333   0.3333333), wk =   0.2222222
        k(   15) = (   0.1666667   0.3333333  -0.5000000), wk =   0.2222222
        k(   16) = (   0.1666667  -0.5000000  -0.5000000), wk =   0.0555556
        k(   17) = (   0.3333333   0.3333333   0.3333333), wk =   0.0740741
        k(   18) = (   0.3333333   0.3333333  -0.5000000), wk =   0.1111111
        k(   19) = (   0.3333333  -0.5000000  -0.5000000), wk =   0.0555556
        k(   20) = (  -0.5000000  -0.5000000  -0.5000000), wk =   0.0092593

     Dense  grid:    13301 G-vectors     FFT dimensions: (  30,  30,  30)

     Largest allocated arrays     est. size (Mb)     dimensions
        Kohn-Sham Wavefunctions         0.43 Mb     (    1743,   16)
        NL pseudopotentials             1.06 Mb     (    1743,   40)
        Each V/rho on FFT grid          0.41 Mb     (   27000)
        Each G-vector array             0.10 Mb     (   13301)
        G-vector shells                 0.00 Mb     (     183)
     Largest temporary arrays     est. size (Mb)     dimensions
        Auxiliary wavefunctions         1.70 Mb     (    1743,   64)
        Each subspace H/S matrix        0.06 Mb     (      64,   64)
        Each <psi_i|beta_j> matrix      0.01 Mb     (      40,   16)
        Arrays for rho mixing           3.30 Mb     (   27000,    8)

     Initial potential from superposition of free atoms

     starting charge   31.99557, renormalised to   32.00000
     Starting wfc are   32 randomized atomic wfcs

     total cpu time spent up to now is        5.1 secs

     per-process dynamical memory:    20.8 Mb

     Self-consistent Calculation

     iteration #  1     ecut=    20.00 Ry     beta=0.70
     Davidson diagonalization with overlap
     ethr =  1.00E-02,  avg # of iterations =  2.0

     Threshold (ethr) on eigenvalues was too large:
     Diagonalizing with lowered threshold

     Davidson diagonalization with overlap
     ethr =  6.94E-04,  avg # of iterations =  1.9

     total cpu time spent up to now is       17.8 secs

     total energy              =     -62.95581766 Ry
     Harris-Foulkes estimate   =     -63.00593816 Ry
     estimated scf accuracy    <       0.22113982 Ry

     iteration #  2     ecut=    20.00 Ry     beta=0.70
     Davidson diagonalization with overlap
     ethr =  6.91E-04,  avg # of iterations =  1.0

     total cpu time spent up to now is       22.8 secs

     total energy              =     -62.96334035 Ry
     Harris-Foulkes estimate   =     -62.96350516 Ry
     estimated scf accuracy    <       0.01098835 Ry

     iteration #  3     ecut=    20.00 Ry     beta=0.70
     Davidson diagonalization with overlap
     ethr =  3.43E-05,  avg # of iterations =  2.6

     total cpu time spent up to now is       28.5 secs

     total energy              =     -62.96489581 Ry
     Harris-Foulkes estimate   =     -62.96498783 Ry
     estimated scf accuracy    <       0.00026271 Ry

     iteration #  4     ecut=    20.00 Ry     beta=0.70
     Davidson diagonalization with overlap
     ethr =  8.21E-07,  avg # of iterations =  3.2

     total cpu time spent up to now is       36.3 secs

     total energy              =     -62.96502246 Ry
     Harris-Foulkes estimate   =     -62.96502648 Ry
     estimated scf accuracy    <       0.00001386 Ry

     iteration #  5     ecut=    20.00 Ry     beta=0.70
     Davidson diagonalization with overlap
     ethr =  4.33E-08,  avg # of iterations =  2.7

     total cpu time spent up to now is       44.9 secs

     End of self-consistent calculation

          k = 0.0000 0.0000 0.0000 (  1743 PWs)   bands (ev):

    -5.7619  -1.7110  -1.7103  -1.7103  -1.7103  -1.7100  -1.7100   3.1915
     3.1915   3.1915   3.1918   3.1918   3.1918   5.9722   5.9722   5.9722

          k = 0.0000 0.0000 0.1667 (  1683 PWs)   bands (ev):

    -5.6430  -2.8933  -1.6743  -1.6739  -1.6739  -1.6736  -0.3864   2.8997
     2.8999   2.8999   2.9000   3.2993   3.2993   5.2772   5.5571   5.5571

          k = 0.0000 0.0000 0.3333 (  1675 PWs)   bands (ev):

    -5.2883  -3.8996  -1.5967  -1.5963  -1.5963  -1.5961   1.0321   2.4331
     2.4332   2.4332   2.4332   3.6176   3.6176   3.9484   4.8152   4.8152

          k = 0.0000 0.0000-0.5000 (  1654 PWs)   bands (ev):

    -4.7039  -4.7034  -1.5550  -1.5546  -1.5546  -1.5543   2.2331   2.2332
     2.2332   2.2333   2.4951   2.4952   4.1339   4.1339   4.1344   4.1344

          k = 0.0000 0.1667 0.1667 (  1691 PWs)   bands (ev):

    -5.5252  -2.8184  -2.8181  -1.8522  -1.4526  -0.4231  -0.4229   2.2374
     2.9344   2.9344   3.1257   3.1260   3.3802   4.4041   5.1384   5.8551

          k = 0.0000 0.1667 0.3333 (  1684 PWs)   bands (ev):

    -5.1739  -3.8035  -2.6110  -2.0575  -1.1604  -0.5649   0.8615   1.8459
     2.3113   2.9150   3.2119   3.2751   3.2827   3.6269   4.3892   5.2818

          k = 0.0000 0.1667-0.5000 (  1662 PWs)   bands (ev):

    -4.5960  -4.5955  -2.3286  -2.3282  -0.8342  -0.8340   1.8854   1.8856
     2.1059   2.1060   2.9837   2.9838   3.7101   3.7102   4.3882   4.3883

          k = 0.0000 0.3333 0.3333 (  1664 PWs)   bands (ev):

    -4.8335  -3.5247  -3.5244  -2.5758  -0.6838   0.4163   0.4164   1.6870
     2.3127   2.5044   2.5044   3.6324   3.7429   3.7434   3.9143   5.4183

          k = 0.0000 0.3333-0.5000 (  1670 PWs)   bands (ev):

    -4.2774  -4.2769  -3.0946  -3.0942  -0.1425  -0.1423   1.3579   1.3579
     1.9401   1.9402   2.9634   2.9635   3.9525   3.9526   4.7323   4.7324

          k = 0.0000-0.5000-0.5000 (  1652 PWs)   bands (ev):

    -3.7656  -3.7648  -3.7648  -3.7647   0.5820   0.5821   0.5821   0.5821
     2.3267   2.3268   2.3268   2.3271   4.6767   4.6767   4.6771   4.6773

          k = 0.1667 0.1667 0.1667 (  1683 PWs)   bands (ev):

    -5.4086  -2.7639  -2.7633  -2.7633  -0.4875  -0.4872  -0.4872   2.4442
     2.4444   2.4444   3.4831   3.4831   3.4834   3.6348   5.5344   5.5344

          k = 0.1667 0.1667 0.3333 (  1678 PWs)   bands (ev):

    -5.0613  -3.7150  -2.6392  -2.6388  -0.6505  -0.6504   0.6027   2.1347
     2.1349   2.6046   3.0670   3.4241   3.4242   3.7869   4.8964   5.0665

          k = 0.1667 0.1667-0.5000 (  1664 PWs)   bands (ev):

    -4.4916  -4.4912  -2.5667  -2.5663  -0.7513  -0.7512   1.6107   1.6109
     2.0728   2.0731   3.2915   3.2915   4.0293   4.0295   4.2731   4.2736

          k = 0.1667 0.3333 0.3333 (  1657 PWs)   bands (ev):

    -4.7274  -3.4658  -3.4654  -2.7938  -0.6995   0.0540   0.0541   1.6542
     2.1803   2.8329   2.8330   3.9045   3.9049   3.9989   4.3272   5.3034

          k = 0.1667 0.3333-0.5000 (  1676 PWs)   bands (ev):

    -4.1859  -4.1854  -3.1152  -3.1147  -0.4502  -0.4501   0.8001   0.8003
     2.4783   2.4786   3.5990   3.5993   4.0543   4.0543   4.6957   4.6959

          k = 0.1667-0.5000-0.5000 (  1672 PWs)   bands (ev):

    -3.7058  -3.7050  -3.7050  -3.7049   0.0803   0.0806   0.0806   0.0808
     3.0031   3.0034   3.0034   3.0038   4.7058   4.7058   4.7062   4.7064

          k = 0.3333 0.3333 0.3333 (  1673 PWs)   bands (ev):

    -4.4166  -3.3314  -3.3308  -3.3308  -0.5025  -0.5025  -0.5024   0.7449
     3.2630   3.2635   3.2635   4.2406   4.2406   4.2409   4.9947   4.9947

          k = 0.3333 0.3333-0.5000 (  1686 PWs)   bands (ev):

    -3.9281  -3.9277  -3.2526  -3.2522  -0.7462  -0.7462  -0.0013  -0.0011
     3.4355   3.4359   4.3672   4.3672   4.4309   4.4310   4.5996   4.6001

          k = 0.3333-0.5000-0.5000 (  1656 PWs)   bands (ev):

    -3.5693  -3.5685  -3.5685  -3.5684  -0.5779  -0.5778  -0.5778  -0.5776
     4.1391   4.1395   4.1395   4.1398   4.7670   4.7670   4.7674   4.7676

          k =-0.5000-0.5000-0.5000 (  1640 PWs)   bands (ev):

    -3.4895  -3.4886  -3.4886  -3.4886  -0.8493  -0.8493  -0.8493  -0.8491
     4.7992   4.7992   4.7992   4.7998   4.7998   4.7998   4.7999   4.7999

     highest occupied level (ev):     5.9722

!    total energy              =     -62.96502580 Ry
     Harris-Foulkes estimate   =     -62.96502607 Ry
     estimated scf accuracy    <       0.00000052 Ry

     The total energy is the sum of the following terms:

     one-electron contribution =      18.34844939 Ry
     hartree contribution      =       4.46280811 Ry
     xc contribution           =     -19.14406916 Ry
     ewald contribution        =     -66.63221413 Ry

     convergence has been achieved in   5 iterations

     Writing output data file Si_exc1.save

     init_run     :      4.18s CPU      4.87s WALL (       1 calls)
     electrons    :     38.60s CPU     40.06s WALL (       1 calls)

     Called by init_run:
     wfcinit      :      3.91s CPU      4.39s WALL (       1 calls)
     potinit      :      0.06s CPU      0.09s WALL (       1 calls)

     Called by electrons:
     c_bands      :     34.18s CPU     35.21s WALL (       6 calls)
     sum_band     :      4.15s CPU      4.27s WALL (       6 calls)
     v_of_rho     :      0.28s CPU      0.28s WALL (       6 calls)
     mix_rho      :      0.02s CPU      0.04s WALL (       6 calls)

     Called by c_bands:
     init_us_2    :      0.31s CPU      0.32s WALL (     260 calls)
     cegterg      :     33.76s CPU     34.78s WALL (     120 calls)

     Called by *egterg:
     h_psi        :     29.66s CPU     30.78s WALL (     408 calls)
     g_psi        :      0.08s CPU      0.08s WALL (     268 calls)
     cdiaghg      :      0.61s CPU      0.72s WALL (     368 calls)

     Called by h_psi:
     add_vuspsi   :      2.69s CPU      2.77s WALL (     408 calls)

     General routines
     calbec       :      2.80s CPU      2.87s WALL (     408 calls)
     fft          :      0.15s CPU      0.23s WALL (      67 calls)
     fftw         :     26.55s CPU     27.61s WALL (   13244 calls)
     davcio       :      0.01s CPU      0.66s WALL (      20 calls)

     Parallel routines
     fft_scatter  :      0.91s CPU      0.93s WALL (   13311 calls)

     PWSCF        :    43.33s CPU        47.60s WALL


   This run was terminated on:   2: 1: 1  10May2022            

=------------------------------------------------------------------------------=
   JOB DONE.
=------------------------------------------------------------------------------=
