
     Program PWSCF v.5.1 starts on 12Feb2023 at 22: 4:34 

     This program is part of the open-source Quantum ESPRESSO suite
     for quantum simulation of materials; please cite
         "P. Giannozzi et al., J. Phys.:Condens. Matter 21 395502 (2009);
          URL http://www.quantum-espresso.org", 
     in publications or presentations arising from this work. More details at
     http://www.quantum-espresso.org/quote

     Parallel version (MPI), running on     1 processors
     Waiting for input...
     Reading input from standard input

     Current dimensions of program PWSCF are:
     Max number of different atomic species (ntypx) = 10
     Max number of k-points (npk) =  40000
     Max angular momentum in pseudopotentials (lmaxx) =  3

     Atomic positions and unit cell read from directory:
     ./out/Si.save/

               file Si.pbe-mt_fhi.UPF: wavefunction(s)  4f renormalized
               file P.pbe-mt_fhi.UPF: wavefunction(s)  4f renormalized

     Subspace diagonalization in iterative solution of the eigenvalue problem:
     a serial algorithm will be used


     G-vector sticks info
     --------------------
     sticks:   dense  smooth     PW     G-vecs:    dense   smooth      PW
     Sum         733     733    211                12939    12939    2109



     bravais-lattice index     =            2
     lattice parameter (alat)  =      10.2623  a.u.
     unit-cell volume          =     270.1967 (a.u.)^3
     number of atoms/cell      =            2
     number of atomic types    =            2
     number of electrons       =         9.00
     number of Kohn-Sham states=           10
     kinetic-energy cutoff     =      50.0000  Ry
     charge density cutoff     =     200.0000  Ry
     Exchange-correlation      = PBE ( 1  4  3  4 0)

     celldm(1)=  10.262347  celldm(2)=   0.000000  celldm(3)=   0.000000
     celldm(4)=   0.000000  celldm(5)=   0.000000  celldm(6)=   0.000000

     crystal axes: (cart. coord. in units of alat)
               a(1) = (  -0.500000   0.000000   0.500000 )  
               a(2) = (   0.000000   0.500000   0.500000 )  
               a(3) = (  -0.500000   0.500000   0.000000 )  

     reciprocal axes: (cart. coord. in units 2 pi/alat)
               b(1) = ( -1.000000 -1.000000  1.000000 )  
               b(2) = (  1.000000  1.000000  1.000000 )  
               b(3) = ( -1.000000  1.000000 -1.000000 )  


     PseudoPot. # 1 for Si read from file:
     /home/acedemo/psudo/Si.pbe-mt_fhi.UPF
     MD5 check sum: 259057c2adf9952f9ced37ae3d9e311d
     Pseudo is Norm-conserving, Zval =  4.0
     Generated using FHI98PP, converted with fhi2upf.x v.5.0.2
     Using radial grid of  495 points,  3 beta functions with: 
                l(1) =   0
                l(2) =   1
                l(3) =   3

     PseudoPot. # 2 for  P read from file:
     /home/acedemo/psudo/P.pbe-mt_fhi.UPF
     MD5 check sum: 7191c457fb61afa58d0f00d0e4a443c1
     Pseudo is Norm-conserving, Zval =  5.0
     Generated using FHI98PP, converted with fhi2upf.x v.5.0.2
     Using radial grid of  499 points,  3 beta functions with: 
                l(1) =   0
                l(2) =   1
                l(3) =   3

     atomic species   valence    mass     pseudopotential
        Si             4.00    28.08550     Si( 1.00)
        P              5.00    30.97376      P( 1.00)

     24 Sym. Ops. (no inversion) found



   Cartesian axes

     site n.     atom                  positions (alat units)
         1           Si  tau(   1) = (   0.0000000   0.0000000   0.0000000  )
         2           P   tau(   2) = (   0.2500000   0.2500000   0.2500000  )

     number of k points=    51  Marzari-Vanderbilt smearing, width (Ry)=  0.0500
                       cart. coord. in units 2pi/alat
        k(    1) = (   0.5000000   0.5000000   0.5000000), wk =   0.0000000
        k(    2) = (   0.4500000   0.4500000   0.4500000), wk =   0.0014779
        k(    3) = (   0.4000000   0.4000000   0.4000000), wk =   0.0029558
        k(    4) = (   0.3500000   0.3500000   0.3500000), wk =   0.0044337
        k(    5) = (   0.3000000   0.3000000   0.3000000), wk =   0.0059116
        k(    6) = (   0.2500000   0.2500000   0.2500000), wk =   0.0073895
        k(    7) = (   0.2000000   0.2000000   0.2000000), wk =   0.0088674
        k(    8) = (   0.1500000   0.1500000   0.1500000), wk =   0.0103453
        k(    9) = (   0.1000000   0.1000000   0.1000000), wk =   0.0118232
        k(   10) = (   0.0500000   0.0500000   0.0500000), wk =   0.0133011
        k(   11) = (   0.0000000   0.0000000   0.0000000), wk =   0.0147790
        k(   12) = (   0.0000000   0.1000000   0.0000000), wk =   0.0168691
        k(   13) = (   0.0000000   0.2000000   0.0000000), wk =   0.0189591
        k(   14) = (   0.0000000   0.3000000   0.0000000), wk =   0.0210492
        k(   15) = (   0.0000000   0.4000000   0.0000000), wk =   0.0231392
        k(   16) = (   0.0000000   0.5000000   0.0000000), wk =   0.0252293
        k(   17) = (   0.0000000   0.6000000   0.0000000), wk =   0.0273194
        k(   18) = (   0.0000000   0.7000000   0.0000000), wk =   0.0294094
        k(   19) = (   0.0000000   0.8000000   0.0000000), wk =   0.0314995
        k(   20) = (   0.0000000   0.9000000   0.0000000), wk =   0.0335896
        k(   21) = (   0.0000000   1.0000000   0.0000000), wk =   0.0356796
        k(   22) = (   0.0000000   0.9750000   0.0750000), wk =   0.0370621
        k(   23) = (   0.0000000   0.9500000   0.1500000), wk =   0.0384445
        k(   24) = (  -0.0000000   0.9250000   0.2250000), wk =   0.0398270
        k(   25) = (  -0.0000000   0.9000000   0.3000000), wk =   0.0412094
        k(   26) = (   0.0000000   0.8750000   0.3750000), wk =   0.0425919
        k(   27) = (   0.0000000   0.8500000   0.4500000), wk =   0.0439743
        k(   28) = (   0.0000000   0.8250000   0.5250000), wk =   0.0453568
        k(   29) = (  -0.0000000   0.8000000   0.6000000), wk =   0.0467392
        k(   30) = (  -0.0000000   0.7750000   0.6750000), wk =   0.0481217
        k(   31) = (   0.0000000   0.7500000   0.7500000), wk =   0.0495041
        k(   32) = (   0.0000000   0.7250000   0.7750000), wk =   0.0500266
        k(   33) = (   0.0000000   0.7000000   0.8000000), wk =   0.0505491
        k(   34) = (   0.0000000   0.6750000   0.8250000), wk =   0.0510717
        k(   35) = (   0.0000000   0.6500000   0.8500000), wk =   0.0515942
        k(   36) = (   0.0000000   0.6250000   0.8750000), wk =   0.0521167
        k(   37) = (   0.0000000   0.6000000   0.9000000), wk =   0.0526392
        k(   38) = (   0.0000000   0.5750000   0.9250000), wk =   0.0531617
        k(   39) = (   0.0000000   0.5500000   0.9500000), wk =   0.0536842
        k(   40) = (   0.0000000   0.5250000   0.9750000), wk =   0.0542067
        k(   41) = (   0.0000000   0.5000000   1.0000000), wk =   0.0547293
        k(   42) = (   0.0000000   0.4500000   0.9000000), wk =   0.0574942
        k(   43) = (  -0.0000000   0.4000000   0.8000000), wk =   0.0602591
        k(   44) = (  -0.0000000   0.3500000   0.7000000), wk =   0.0630239
        k(   45) = (  -0.0000000   0.3000000   0.6000000), wk =   0.0657888
        k(   46) = (   0.0000000   0.2500000   0.5000000), wk =   0.0685537
        k(   47) = (   0.0000000   0.2000000   0.4000000), wk =   0.0713186
        k(   48) = (   0.0000000   0.1500000   0.3000000), wk =   0.0740835
        k(   49) = (  -0.0000000   0.1000000   0.2000000), wk =   0.0768484
        k(   50) = (  -0.0000000   0.0500000   0.1000000), wk =   0.0796133
        k(   51) = (   0.0000000   0.0000000   0.0000000), wk =   0.0823782

     Dense  grid:    12939 G-vectors     FFT dimensions: (  36,  36,  36)

     Largest allocated arrays     est. size (Mb)     dimensions
        Kohn-Sham Wavefunctions         0.25 Mb     (    1639,   10)
        NL pseudopotentials             0.55 Mb     (    1639,   22)
        Each V/rho on FFT grid          0.71 Mb     (   46656)
        Each G-vector array             0.10 Mb     (   12939)
        G-vector shells                 0.00 Mb     (     180)
     Largest temporary arrays     est. size (Mb)     dimensions
        Auxiliary wavefunctions         1.00 Mb     (    1639,   40)
        Each subspace H/S matrix        0.02 Mb     (      40,   40)
        Each <psi_i|beta_j> matrix      0.00 Mb     (      22,   10)

     The potential is recalculated from file :
     ./out/Si.save/charge-density.dat

     Starting wfc are   32 randomized atomic wfcs

     Band Structure Calculation
     Davidson diagonalization with overlap

     ethr =  1.78E-11,  avg # of iterations = 18.6

     total cpu time spent up to now is       31.6 secs

     End of band structure calculation

          k = 0.5000 0.5000 0.5000 (  1622 PWs)   bands (ev):

    -5.2032  -1.5716   3.7994   3.7994   6.3728   9.2204   9.2204  13.5300
    16.1970  16.5545

          k = 0.4500 0.4500 0.4500 (  1610 PWs)   bands (ev):

    -5.2896  -1.4273   3.8163   3.8163   6.3946   9.2306   9.2306  13.4893
    15.7192  15.7852

          k = 0.4000 0.4000 0.4000 (  1616 PWs)   bands (ev):

    -5.5125  -1.0317   3.8666   3.8666   6.4592   9.2550   9.2550  13.2857
    14.9521  14.9521

          k = 0.3500 0.3500 0.3500 (  1610 PWs)   bands (ev):

    -5.8025  -0.4558   3.9490   3.9490   6.5642   9.2740   9.2740  12.7654
    14.2493  14.2493

          k = 0.3000 0.3000 0.3000 (  1615 PWs)   bands (ev):

    -6.1054   0.2425   4.0609   4.0609   6.7046   9.2559   9.2559  11.9962
    13.7200  13.7200

          k = 0.2500 0.2500 0.2500 (  1618 PWs)   bands (ev):

    -6.3890   1.0256   4.1975   4.1975   6.8705   9.1672   9.1672  11.1340
    13.4017  13.4017

          k = 0.2000 0.2000 0.2000 (  1606 PWs)   bands (ev):

    -6.6352   1.8667   4.3509   4.3509   7.0420   8.9963   8.9963  10.2572
    13.3068  13.3068

          k = 0.1500 0.1500 0.1500 (  1600 PWs)   bands (ev):

    -6.8338   2.7408   4.5083   4.5083   7.1743   8.7705   8.7705   9.4222
    13.4023  13.4023

          k = 0.1000 0.1000 0.1000 (  1606 PWs)   bands (ev):

    -6.9790   3.6123   4.6506   4.6506   7.1578   8.5452   8.5452   8.7405
    13.6144  13.6144

          k = 0.0500 0.0500 0.0500 (  1630 PWs)   bands (ev):

    -7.0673   4.3965   4.7526   4.7526   6.8539   8.3793   8.3793   8.3918
    13.8357  13.8357

          k = 0.0000 0.0000 0.0000 (  1639 PWs)   bands (ev):

    -7.0970   4.7901   4.7901   4.7901   6.5835   8.3182   8.3182   8.3182
    13.8725  13.9338

          k = 0.0000 0.1000 0.0000 (  1627 PWs)   bands (ev):

    -7.0574   4.3913   4.6746   4.6746   6.9718   8.2262   8.4839   8.4839
    13.6330  13.9814

          k = 0.0000 0.2000 0.0000 (  1599 PWs)   bands (ev):

    -6.9393   3.6228   4.3836   4.3836   7.6341   8.0380   8.9249   8.9249
    12.9750  14.1243

          k = 0.0000 0.3000 0.0000 (  1607 PWs)   bands (ev):

    -6.7444   2.7801   4.0142   4.0142   7.5741   8.4327   9.5421   9.5421
    12.3510  14.3621

          k = 0.0000 0.4000 0.0000 (  1607 PWs)   bands (ev):

    -6.4753   1.9295   3.6346   3.6346   7.2407   8.7406  10.2647  10.2647
    12.1308  14.6945

          k = 0.0000 0.5000 0.0000 (  1612 PWs)   bands (ev):

    -6.1366   1.0915   3.2825   3.2825   6.9272   8.5569  11.0525  11.0525
    12.5137  15.1209

          k = 0.0000 0.6000 0.0000 (  1620 PWs)   bands (ev):

    -5.7364   0.2787   2.9783   2.9783   6.6716   8.0981  11.8815  11.8815
    13.2895  15.6402

          k = 0.0000 0.7000 0.0000 (  1632 PWs)   bands (ev):

    -5.2888  -0.4926   2.7334   2.7334   6.4932   7.5996  12.7336  12.7336
    14.2186  16.2505

          k = 0.0000 0.8000 0.0000 (  1624 PWs)   bands (ev):

    -4.8236  -1.1907   2.5546   2.5546   6.4034   7.1642  13.5828  13.5828
    15.1782  16.9479

          k = 0.0000 0.9000 0.0000 (  1608 PWs)   bands (ev):

    -4.4142  -1.7406   2.4460   2.4460   6.4041   6.8361  14.3510  14.3510
    16.0615  17.3169

          k = 0.0000 1.0000 0.0000 (  1604 PWs)   bands (ev):

    -4.2304  -1.9715   2.4095   2.4095   6.4456   6.6837  14.7357  14.7357
    16.5342  16.9124

          k = 0.0000 0.9750 0.0750 (  1618 PWs)   bands (ev):

    -4.2399  -1.9477   2.3560   2.3665   6.5510   6.8072  14.4878  14.6032
    16.0859  16.6484

          k = 0.0000 0.9500 0.1500 (  1622 PWs)   bands (ev):

    -4.2651  -1.8827   2.2098   2.2634   6.8557   7.1508  13.7196  14.2828
    15.6368  16.4252

          k =-0.0000 0.9250 0.2250 (  1622 PWs)   bands (ev):

    -4.2991  -1.7938   2.0077   2.1533   7.3268   7.6613  12.6991  13.8244
    15.2180  16.3985

          k =-0.0000 0.9000 0.3000 (  1623 PWs)   bands (ev):

    -4.3337  -1.7044   1.7894   2.0865   7.9233   8.2915  11.6289  13.2650
    14.8484  16.3535

          k = 0.0000 0.8750 0.3750 (  1614 PWs)   bands (ev):

    -4.3618  -1.6375   1.5850   2.0978   8.6018   9.0013  10.5983  12.6592
    14.5206  16.1754

          k = 0.0000 0.8500 0.4500 (  1612 PWs)   bands (ev):

    -4.3786  -1.6073   1.4145   2.2004   9.1516   9.6518   9.9344  12.0615
    14.2118  15.8661

          k = 0.0000 0.8250 0.5250 (  1611 PWs)   bands (ev):

    -4.3814  -1.6152   1.2904   2.3804   8.5419  10.2796  10.5418  11.5804
    13.9080  15.4715

          k =-0.0000 0.8000 0.6000 (  1614 PWs)   bands (ev):

    -4.3693  -1.6519   1.2204   2.5934   7.7959  10.5564  11.1740  11.7814
    13.6065  15.0504

          k =-0.0000 0.7750 0.6750 (  1621 PWs)   bands (ev):

    -4.3431  -1.7036   1.2085   2.7615   7.2399  10.1215  12.0236  12.4863
    13.3207  14.6984

          k = 0.0000 0.7500 0.7500 (  1624 PWs)   bands (ev):

    -4.3056  -1.7576   1.2559   2.7866   6.9827   9.6461  12.7051  12.9693
    13.2293  14.6639

          k = 0.0000 0.7250 0.7750 (  1616 PWs)   bands (ev):

    -4.3030  -1.7579   1.2599   2.7604   7.0271   9.6496  12.5676  12.8920
    13.3654  14.7408

          k = 0.0000 0.7000 0.8000 (  1621 PWs)   bands (ev):

    -4.2956  -1.7588   1.2720   2.6858   7.1565   9.6600  12.3098  12.6931
    13.6194  14.9373

          k = 0.0000 0.6750 0.8250 (  1620 PWs)   bands (ev):

    -4.2837  -1.7607   1.2921   2.5731   7.3610   9.6770  12.0276  12.4277
    13.8952  15.1948

          k = 0.0000 0.6500 0.8500 (  1616 PWs)   bands (ev):

    -4.2679  -1.7636   1.3199   2.4354   7.6278   9.7001  11.7405  12.1320
    14.1733  15.4707

          k = 0.0000 0.6250 0.8750 (  1616 PWs)   bands (ev):

    -4.2492  -1.7680   1.3552   2.2856   7.9443   9.7283  11.4549  11.8256
    14.4468  15.7334

          k = 0.0000 0.6000 0.9000 (  1613 PWs)   bands (ev):

    -4.2289  -1.7739   1.3974   2.1351   8.2990   9.7599  11.1751  11.5197
    14.7111  15.9510

          k = 0.0000 0.5750 0.9250 (  1615 PWs)   bands (ev):

    -4.2087  -1.7809   1.4458   1.9936   8.6802   9.7921  10.9059  11.2234
    14.9613  16.0871

          k = 0.0000 0.5500 0.9500 (  1615 PWs)   bands (ev):

    -4.1909  -1.7885   1.4982   1.8697   9.0713   9.8194  10.6565  10.9476
    15.1881  16.1180

          k = 0.0000 0.5250 0.9750 (  1615 PWs)   bands (ev):

    -4.1780  -1.7949   1.5483   1.7746   9.4275   9.8383  10.4514  10.7147
    15.3696  16.0691

          k = 0.0000 0.5000 1.0000 (  1628 PWs)   bands (ev):

    -4.1731  -1.7977   1.5732   1.7344   9.5874   9.8628  10.3663  10.5948
    15.4484  16.0279

          k = 0.0000 0.4500 0.9000 (  1616 PWs)   bands (ev):

    -4.2700  -1.7117   1.4610   2.0021   9.2474   9.6405  10.0975  11.6223
    14.7200  16.1630

          k =-0.0000 0.4000 0.8000 (  1616 PWs)   bands (ev):

    -4.5677  -1.4170   1.5153   2.3905   8.8306   9.3507   9.8991  12.9785
    13.8099  15.5671

          k =-0.0000 0.3500 0.7000 (  1618 PWs)   bands (ev):

    -4.9987  -0.9265   1.7561   2.8143   8.4675   9.1282   9.8412  12.6032
    14.2966  15.1851

          k =-0.0000 0.3000 0.6000 (  1609 PWs)   bands (ev):

    -5.4733  -0.2836   2.1399   3.2421   8.1913   8.9417   9.9208  11.6925
    13.8056  16.1927

          k = 0.0000 0.2500 0.5000 (  1610 PWs)   bands (ev):

    -5.9299   0.4800   2.6263   3.6466   8.0133   8.7371  10.1184  10.8401
    13.1596  15.5183

          k = 0.0000 0.2000 0.4000 (  1613 PWs)   bands (ev):

    -6.3323   1.3434   3.1756   4.0085   7.9281   8.4814  10.0661  10.2834
    12.6135  14.5819

          k = 0.0000 0.1500 0.3000 (  1607 PWs)   bands (ev):

    -6.6600   2.2878   3.7410   4.3174   7.8719   8.2198   9.3958   9.9727
    12.5246  14.1086

          k =-0.0000 0.1000 0.2000 (  1600 PWs)   bands (ev):

    -6.9007   3.2839   4.2596   4.5639   7.5771   8.1778   8.8445   9.1961
    13.0057  13.9524

          k =-0.0000 0.0500 0.1000 (  1623 PWs)   bands (ev):

    -7.0476   4.2489   4.6439   4.7301   7.0132   8.2693   8.4608   8.5392
    13.6268  13.9300

          k = 0.0000 0.0000 0.0000 (  1639 PWs)   bands (ev):

    -7.0970   4.7901   4.7901   4.7901   6.5835   8.3182   8.3182   8.3182
    13.8725  13.9338

     Writing output data file Si.save

     init_run     :      0.33s CPU      0.33s WALL (       1 calls)
     electrons    :     28.86s CPU     29.58s WALL (       1 calls)

     Called by init_run:
     wfcinit      :      0.00s CPU      0.00s WALL (       1 calls)
     potinit      :      0.06s CPU      0.06s WALL (       1 calls)

     Called by electrons:
     c_bands      :     28.86s CPU     29.58s WALL (       1 calls)
     v_of_rho     :      0.05s CPU      0.05s WALL (       1 calls)

     Called by c_bands:
     init_us_2    :      0.10s CPU      0.11s WALL (      51 calls)
     cegterg      :     22.49s CPU     23.11s WALL (      65 calls)

     Called by *egterg:
     h_psi        :     24.14s CPU     24.75s WALL (    1063 calls)
     g_psi        :      0.06s CPU      0.06s WALL (     947 calls)
     cdiaghg      :      0.51s CPU      0.53s WALL (     998 calls)

     Called by h_psi:
     add_vuspsi   :      0.68s CPU      0.70s WALL (    1063 calls)

     General routines
     calbec       :      0.78s CPU      0.81s WALL (    1063 calls)
     fft          :      0.02s CPU      0.02s WALL (      10 calls)
     fftw         :     21.43s CPU     21.95s WALL (   15550 calls)
     davcio       :      0.00s CPU      0.01s WALL (      51 calls)

     Parallel routines
     fft_scatter  :      0.53s CPU      0.53s WALL (   15560 calls)

     PWSCF        :    30.82s CPU        31.73s WALL


   This run was terminated on:  22: 5: 6  12Feb2023            

=------------------------------------------------------------------------------=
   JOB DONE.
=------------------------------------------------------------------------------=
