
     Program PWSCF v.5.1 starts on 14Feb2023 at 19: 0: 0 

     This program is part of the open-source Quantum ESPRESSO suite
     for quantum simulation of materials; please cite
         "P. Giannozzi et al., J. Phys.:Condens. Matter 21 395502 (2009);
          URL http://www.quantum-espresso.org", 
     in publications or presentations arising from this work. More details at
     http://www.quantum-espresso.org/quote

     Parallel version (MPI), running on     1 processors
     Waiting for input...
     Reading input from standard input

     Current dimensions of program PWSCF are:
     Max number of different atomic species (ntypx) = 10
     Max number of k-points (npk) =  40000
     Max angular momentum in pseudopotentials (lmaxx) =  3

     Atomic positions and unit cell read from directory:
     ./out/Si.save/

               file Si.pbe-mt_fhi.UPF: wavefunction(s)  4f renormalized

     Subspace diagonalization in iterative solution of the eigenvalue problem:
     a serial algorithm will be used


     G-vector sticks info
     --------------------
     sticks:   dense  smooth     PW     G-vecs:    dense   smooth      PW
     Sum         733     733    211                12939    12939    2109



     bravais-lattice index     =            2
     lattice parameter (alat)  =      10.2623  a.u.
     unit-cell volume          =     270.1967 (a.u.)^3
     number of atoms/cell      =            2
     number of atomic types    =            1
     number of electrons       =        18.00
     number of Kohn-Sham states=           10
     kinetic-energy cutoff     =      50.0000  Ry
     charge density cutoff     =     200.0000  Ry
     Exchange-correlation      = PBE ( 1  4  3  4 0)

     celldm(1)=  10.262347  celldm(2)=   0.000000  celldm(3)=   0.000000
     celldm(4)=   0.000000  celldm(5)=   0.000000  celldm(6)=   0.000000

     crystal axes: (cart. coord. in units of alat)
               a(1) = (  -0.500000   0.000000   0.500000 )  
               a(2) = (   0.000000   0.500000   0.500000 )  
               a(3) = (  -0.500000   0.500000   0.000000 )  

     reciprocal axes: (cart. coord. in units 2 pi/alat)
               b(1) = ( -1.000000 -1.000000  1.000000 )  
               b(2) = (  1.000000  1.000000  1.000000 )  
               b(3) = ( -1.000000  1.000000 -1.000000 )  


     PseudoPot. # 1 for Si read from file:
     /home/acedemo/psudo/Si.pbe-mt_fhi.UPF
     MD5 check sum: 259057c2adf9952f9ced37ae3d9e311d
     Pseudo is Norm-conserving, Zval =  4.0
     Generated using FHI98PP, converted with fhi2upf.x v.5.0.2
     Using radial grid of  495 points,  3 beta functions with: 
                l(1) =   0
                l(2) =   1
                l(3) =   3

     atomic species   valence    mass     pseudopotential
        Si             4.00    28.08550     Si( 1.00)

     48 Sym. Ops., with inversion, found (24 have fractional translation)



   Cartesian axes

     site n.     atom                  positions (alat units)
         1           Si  tau(   1) = (   0.0000000   0.0000000   0.0000000  )
         2           Si  tau(   2) = (   0.2500000   0.2500000   0.2500000  )

     number of k points=    51  Marzari-Vanderbilt smearing, width (Ry)=  0.0500
                       cart. coord. in units 2pi/alat
        k(    1) = (   0.5000000   0.5000000   0.5000000), wk =   0.0000000
        k(    2) = (   0.4500000   0.4500000   0.4500000), wk =   0.0014779
        k(    3) = (   0.4000000   0.4000000   0.4000000), wk =   0.0029558
        k(    4) = (   0.3500000   0.3500000   0.3500000), wk =   0.0044337
        k(    5) = (   0.3000000   0.3000000   0.3000000), wk =   0.0059116
        k(    6) = (   0.2500000   0.2500000   0.2500000), wk =   0.0073895
        k(    7) = (   0.2000000   0.2000000   0.2000000), wk =   0.0088674
        k(    8) = (   0.1500000   0.1500000   0.1500000), wk =   0.0103453
        k(    9) = (   0.1000000   0.1000000   0.1000000), wk =   0.0118232
        k(   10) = (   0.0500000   0.0500000   0.0500000), wk =   0.0133011
        k(   11) = (   0.0000000   0.0000000   0.0000000), wk =   0.0147790
        k(   12) = (   0.0000000   0.1000000   0.0000000), wk =   0.0168691
        k(   13) = (   0.0000000   0.2000000   0.0000000), wk =   0.0189591
        k(   14) = (   0.0000000   0.3000000   0.0000000), wk =   0.0210492
        k(   15) = (   0.0000000   0.4000000   0.0000000), wk =   0.0231392
        k(   16) = (   0.0000000   0.5000000   0.0000000), wk =   0.0252293
        k(   17) = (   0.0000000   0.6000000   0.0000000), wk =   0.0273194
        k(   18) = (   0.0000000   0.7000000   0.0000000), wk =   0.0294094
        k(   19) = (   0.0000000   0.8000000   0.0000000), wk =   0.0314995
        k(   20) = (   0.0000000   0.9000000   0.0000000), wk =   0.0335896
        k(   21) = (   0.0000000   1.0000000   0.0000000), wk =   0.0356796
        k(   22) = (   0.0000000   0.9750000   0.0750000), wk =   0.0370621
        k(   23) = (   0.0000000   0.9500000   0.1500000), wk =   0.0384445
        k(   24) = (  -0.0000000   0.9250000   0.2250000), wk =   0.0398270
        k(   25) = (  -0.0000000   0.9000000   0.3000000), wk =   0.0412094
        k(   26) = (   0.0000000   0.8750000   0.3750000), wk =   0.0425919
        k(   27) = (   0.0000000   0.8500000   0.4500000), wk =   0.0439743
        k(   28) = (   0.0000000   0.8250000   0.5250000), wk =   0.0453568
        k(   29) = (  -0.0000000   0.8000000   0.6000000), wk =   0.0467392
        k(   30) = (  -0.0000000   0.7750000   0.6750000), wk =   0.0481217
        k(   31) = (   0.0000000   0.7500000   0.7500000), wk =   0.0495041
        k(   32) = (   0.0000000   0.7250000   0.7750000), wk =   0.0500266
        k(   33) = (   0.0000000   0.7000000   0.8000000), wk =   0.0505491
        k(   34) = (   0.0000000   0.6750000   0.8250000), wk =   0.0510717
        k(   35) = (   0.0000000   0.6500000   0.8500000), wk =   0.0515942
        k(   36) = (   0.0000000   0.6250000   0.8750000), wk =   0.0521167
        k(   37) = (   0.0000000   0.6000000   0.9000000), wk =   0.0526392
        k(   38) = (   0.0000000   0.5750000   0.9250000), wk =   0.0531617
        k(   39) = (   0.0000000   0.5500000   0.9500000), wk =   0.0536842
        k(   40) = (   0.0000000   0.5250000   0.9750000), wk =   0.0542067
        k(   41) = (   0.0000000   0.5000000   1.0000000), wk =   0.0547293
        k(   42) = (   0.0000000   0.4500000   0.9000000), wk =   0.0574942
        k(   43) = (  -0.0000000   0.4000000   0.8000000), wk =   0.0602591
        k(   44) = (  -0.0000000   0.3500000   0.7000000), wk =   0.0630239
        k(   45) = (  -0.0000000   0.3000000   0.6000000), wk =   0.0657888
        k(   46) = (   0.0000000   0.2500000   0.5000000), wk =   0.0685537
        k(   47) = (   0.0000000   0.2000000   0.4000000), wk =   0.0713186
        k(   48) = (   0.0000000   0.1500000   0.3000000), wk =   0.0740835
        k(   49) = (  -0.0000000   0.1000000   0.2000000), wk =   0.0768484
        k(   50) = (  -0.0000000   0.0500000   0.1000000), wk =   0.0796133
        k(   51) = (   0.0000000   0.0000000   0.0000000), wk =   0.0823782

     Dense  grid:    12939 G-vectors     FFT dimensions: (  36,  36,  36)

     Largest allocated arrays     est. size (Mb)     dimensions
        Kohn-Sham Wavefunctions         0.25 Mb     (    1639,   10)
        NL pseudopotentials             0.55 Mb     (    1639,   22)
        Each V/rho on FFT grid          0.71 Mb     (   46656)
        Each G-vector array             0.10 Mb     (   12939)
        G-vector shells                 0.00 Mb     (     180)
     Largest temporary arrays     est. size (Mb)     dimensions
        Auxiliary wavefunctions         1.00 Mb     (    1639,   40)
        Each subspace H/S matrix        0.02 Mb     (      40,   40)
        Each <psi_i|beta_j> matrix      0.00 Mb     (      22,   10)

     The potential is recalculated from file :
     ./out/Si.save/charge-density.dat

     Starting wfc are   32 randomized atomic wfcs

     Band Structure Calculation
     Davidson diagonalization with overlap

     ethr =  8.89E-12,  avg # of iterations = 19.3

     total cpu time spent up to now is       23.4 secs

     End of band structure calculation

          k = 0.5000 0.5000 0.5000 (  1622 PWs)   bands (ev):

    -5.1914  -3.2443   3.3917   3.3917   5.4451   6.7936   6.7936   9.3764
    14.4915  14.4915

          k = 0.4500 0.4500 0.4500 (  1610 PWs)   bands (ev):

    -5.3909  -2.9782   3.4080   3.4080   5.4624   6.8303   6.8303   9.4257
    13.6894  13.6894

          k = 0.4000 0.4000 0.4000 (  1616 PWs)   bands (ev):

    -5.8091  -2.3607   3.4574   3.4574   5.5150   6.9352   6.9352   9.5710
    12.7278  12.7278

          k = 0.3500 0.3500 0.3500 (  1610 PWs)   bands (ev):

    -6.2618  -1.5775   3.5416   3.5416   5.6042   7.0917   7.0917   9.8033
    11.8602  11.8602

          k = 0.3000 0.3000 0.3000 (  1615 PWs)   bands (ev):

    -6.6843  -0.6958   3.6623   3.6623   5.7313   7.2634   7.2634  10.0982
    11.1329  11.1329

          k = 0.2500 0.2500 0.2500 (  1618 PWs)   bands (ev):

    -7.0546   0.2576   3.8205   3.8205   5.8960   7.3818   7.3818  10.3548
    10.6153  10.6153

          k = 0.2000 0.2000 0.2000 (  1606 PWs)   bands (ev):

    -7.3634   1.2656   4.0146   4.0146   6.0933   7.3531   7.3531  10.1157
    10.3994  10.3994

          k = 0.1500 0.1500 0.1500 (  1600 PWs)   bands (ev):

    -7.6064   2.3082   4.2381   4.2381   6.3079   7.1432   7.1432   9.4526
    10.5171  10.5171

          k = 0.1000 0.1000 0.1000 (  1606 PWs)   bands (ev):

    -7.7812   3.3491   4.4729   4.4729   6.4952   6.8357   6.8357   8.7354
    10.5172  10.8789

          k = 0.0500 0.0500 0.0500 (  1630 PWs)   bands (ev):

    -7.8865   4.2884   4.6753   4.6753   6.5411   6.5587   6.5587   8.1220
     9.9405  11.3274

          k = 0.0000 0.0000 0.0000 (  1639 PWs)   bands (ev):

    -7.9217   4.7621   4.7621   4.7621   6.4425   6.4425   6.4425   7.8863
     9.7189  11.5723

          k = 0.0000 0.1000 0.0000 (  1627 PWs)   bands (ev):

    -7.8748   4.4732   4.4732   4.4779   6.2418   6.7865   6.7865   8.1576
    10.0060  10.9442

          k = 0.0000 0.2000 0.0000 (  1599 PWs)   bands (ev):

    -7.7343   3.8219   3.9223   3.9223   5.7829   7.5002   7.5002   8.5414
    10.1033  10.7228

          k = 0.0000 0.3000 0.0000 (  1607 PWs)   bands (ev):

    -7.5006   3.0181   3.3541   3.3541   5.2557   7.9358   8.3316   8.3316
    10.4334  11.6752

          k = 0.0000 0.4000 0.0000 (  1607 PWs)   bands (ev):

    -7.1747   2.1489   2.8325   2.8325   4.7523   6.9010   9.2080   9.2080
    11.3949  12.3580

          k = 0.0000 0.5000 0.0000 (  1612 PWs)   bands (ev):

    -6.7581   1.2376   2.3779   2.3779   4.3121   5.9398  10.1011  10.1011
    12.4739  12.7994

          k = 0.0000 0.6000 0.0000 (  1620 PWs)   bands (ev):

    -6.2526   0.2956   1.9993   1.9993   3.9538   5.1349  11.0000  11.0000
    13.3382  13.5522

          k = 0.0000 0.7000 0.0000 (  1632 PWs)   bands (ev):

    -5.6611  -0.6615   1.7015   1.7015   3.6885   4.5007  11.9049  11.9049
    13.9741  14.5631

          k = 0.0000 0.8000 0.0000 (  1624 PWs)   bands (ev):

    -4.9874  -1.6129   1.4873   1.4873   3.5240   4.0305  12.8221  12.8221
    14.7064  15.4712

          k = 0.0000 0.9000 0.0000 (  1608 PWs)   bands (ev):

    -4.2369  -2.5375   1.3582   1.3582   3.4675   3.7104  13.7521  13.7521
    15.5345  15.8289

          k = 0.0000 1.0000 0.0000 (  1604 PWs)   bands (ev):

    -3.4168  -3.4168   1.3150   1.3150   3.5266   3.5266  14.4865  14.4865
    15.0667  15.0667

          k = 0.0000 0.9750 0.0750 (  1618 PWs)   bands (ev):

    -3.6119  -3.1889   1.1608   1.1697   3.7161   3.7697  13.9165  14.2468
    14.7284  15.0793

          k = 0.0000 0.9500 0.1500 (  1622 PWs)   bands (ev):

    -3.7682  -2.9401   0.8080   0.8621   4.2312   4.3188  12.7225  13.6217
    14.3321  15.2998

          k =-0.0000 0.9250 0.2250 (  1622 PWs)   bands (ev):

    -3.8830  -2.6925   0.4042   0.5552   4.9201   5.0293  11.4440  12.8057
    14.0678  15.4927

          k =-0.0000 0.9000 0.3000 (  1623 PWs)   bands (ev):

    -3.9559  -2.4832   0.0188   0.3465   5.7100   5.8311  10.1817  11.9732
    13.8224  15.4598

          k = 0.0000 0.8750 0.3750 (  1614 PWs)   bands (ev):

    -3.9884  -2.3597  -0.3189   0.3052   6.5662   6.6644   8.9977  11.1706
    13.5619  15.1474

          k = 0.0000 0.8500 0.4500 (  1612 PWs)   bands (ev):

    -3.9834  -2.3489  -0.5936   0.4636   7.1454   7.4584   8.2795  10.4270
    13.2700  14.6457

          k = 0.0000 0.8250 0.5250 (  1611 PWs)   bands (ev):

    -3.9452  -2.4294  -0.7949   0.7944   6.3745   8.2995   8.9365   9.8253
    12.9409  14.0443

          k =-0.0000 0.8000 0.6000 (  1614 PWs)   bands (ev):

    -3.8791  -2.5556  -0.9146   1.2282   5.3894   8.5622   9.8849   9.9549
    12.5809  13.4127

          k =-0.0000 0.7750 0.6750 (  1621 PWs)   bands (ev):

    -3.7903  -2.6918  -0.9457   1.6525   4.5434   8.1122  10.7222  11.0547
    12.2120  12.7924

          k = 0.0000 0.7500 0.7500 (  1624 PWs)   bands (ev):

    -3.6831  -2.8187  -0.8840   1.8127   4.1016   7.5760  11.5312  12.0167
    12.1480  12.2532

          k = 0.0000 0.7250 0.7750 (  1616 PWs)   bands (ev):

    -3.6772  -2.8181  -0.8785   1.7396   4.1899   7.5798  11.3448  11.7692
    12.2027  12.6375

          k = 0.0000 0.7000 0.8000 (  1621 PWs)   bands (ev):

    -3.6594  -2.8170  -0.8620   1.5482   4.4271   7.5909  11.0276  11.3500
    12.5189  13.0724

          k = 0.0000 0.6750 0.8250 (  1620 PWs)   bands (ev):

    -3.6297  -2.8162  -0.8346   1.2902   4.7623   7.6089  10.6932  10.9387
    12.8514  13.5072

          k = 0.0000 0.6500 0.8500 (  1616 PWs)   bands (ev):

    -3.5882  -2.8176  -0.7962   1.0047   5.1573   7.6326  10.3596  10.5379
    13.1825  13.9345

          k = 0.0000 0.6250 0.8750 (  1616 PWs)   bands (ev):

    -3.5349  -2.8240  -0.7470   0.7161   5.5895   7.6603  10.0337  10.1495
    13.5060  14.3427

          k = 0.0000 0.6000 0.9000 (  1613 PWs)   bands (ev):

    -3.4697  -2.8391  -0.6870   0.4396   6.0448   7.6889   9.7212   9.7765
    13.8181  14.7095

          k = 0.0000 0.5750 0.9250 (  1615 PWs)   bands (ev):

    -3.3928  -2.8679  -0.6164   0.1868   6.5114   7.7128   9.4245   9.4291
    14.1158  14.9911

          k = 0.0000 0.5500 0.9500 (  1615 PWs)   bands (ev):

    -3.3041  -2.9162  -0.5353  -0.0328   6.9721   7.7222   9.1069   9.1683
    14.3962  15.1205

          k = 0.0000 0.5250 0.9750 (  1615 PWs)   bands (ev):

    -3.2038  -2.9894  -0.4438  -0.2111   7.3850   7.7013   8.8632   8.9557
    14.6558  15.0680

          k = 0.0000 0.5000 1.0000 (  1628 PWs)   bands (ev):

    -3.0918  -3.0918  -0.3423  -0.3423   7.6302   7.6302   8.8118   8.8118
    14.8892  14.8892

          k = 0.0000 0.4500 0.9000 (  1616 PWs)   bands (ev):

    -3.6820  -2.5826  -0.5498   0.1497   7.2604   7.4109   8.4627   9.9634
    13.8352  15.1359

          k =-0.0000 0.4000 0.8000 (  1616 PWs)   bands (ev):

    -4.4178  -1.9964  -0.4037   0.7615   6.9326   6.9757   8.2454  11.5434
    12.7449  14.2297

          k =-0.0000 0.3500 0.7000 (  1618 PWs)   bands (ev):

    -5.1696  -1.3307  -0.0269   1.4654   6.5266   6.8100   8.1385  11.5950
    13.1847  13.2402

          k =-0.0000 0.3000 0.6000 (  1609 PWs)   bands (ev):

    -5.8677  -0.5827   0.5116   2.2161   6.2256   6.8103   8.1035  10.6054
    12.2286  14.1988

          k = 0.0000 0.2500 0.5000 (  1610 PWs)   bands (ev):

    -6.4805   0.2494   1.1759   2.9449   6.0369   7.0368   8.0771   9.6737
    11.4481  13.8331

          k = 0.0000 0.2000 0.4000 (  1613 PWs)   bands (ev):

    -6.9928   1.1640   1.9401   3.5748   5.9628   7.5332   7.9747   8.8154
    10.9151  12.9741

          k = 0.0000 0.1500 0.3000 (  1607 PWs)   bands (ev):

    -7.3967   2.1531   2.7742   4.0649   6.0019   7.6560   8.0338   8.3384
    10.5372  11.7271

          k =-0.0000 0.1000 0.2000 (  1600 PWs)   bands (ev):

    -7.6877   3.1924   3.6276   4.4270   6.1428   7.2600   7.3321   8.8569
    10.1655  10.9454

          k =-0.0000 0.0500 0.1000 (  1623 PWs)   bands (ev):

    -7.8631   4.1984   4.3908   4.6706   6.3369   6.7377   6.7870   8.2490
    10.0763  10.9319

          k = 0.0000 0.0000 0.0000 (  1639 PWs)   bands (ev):

    -7.9217   4.7621   4.7621   4.7621   6.4425   6.4425   6.4425   7.8863
     9.7189  11.5723

     Writing output data file Si.save

     init_run     :      0.15s CPU      0.16s WALL (       1 calls)
     electrons    :     21.53s CPU     21.66s WALL (       1 calls)

     Called by init_run:
     wfcinit      :      0.00s CPU      0.00s WALL (       1 calls)
     potinit      :      0.06s CPU      0.06s WALL (       1 calls)

     Called by electrons:
     c_bands      :     21.53s CPU     21.66s WALL (       1 calls)
     v_of_rho     :      0.05s CPU      0.05s WALL (       1 calls)

     Called by c_bands:
     init_us_2    :      0.07s CPU      0.08s WALL (      51 calls)
     cegterg      :     16.95s CPU     17.05s WALL (      65 calls)

     Called by *egterg:
     h_psi        :     18.07s CPU     18.19s WALL (    1102 calls)
     g_psi        :      0.05s CPU      0.05s WALL (     986 calls)
     cdiaghg      :      0.38s CPU      0.38s WALL (    1037 calls)

     Called by h_psi:
     add_vuspsi   :      0.50s CPU      0.50s WALL (    1102 calls)

     General routines
     calbec       :      0.57s CPU      0.57s WALL (    1102 calls)
     fft          :      0.02s CPU      0.02s WALL (      10 calls)
     fftw         :     16.12s CPU     16.23s WALL (   15816 calls)
     davcio       :      0.00s CPU      0.00s WALL (      51 calls)

     Parallel routines
     fft_scatter  :      0.40s CPU      0.40s WALL (   15826 calls)

     PWSCF        :    23.15s CPU        23.54s WALL


   This run was terminated on:  19: 0:24  14Feb2023            

=------------------------------------------------------------------------------=
   JOB DONE.
=------------------------------------------------------------------------------=
