
     Program PWSCF v.5.1 starts on 13Feb2023 at 17:49:10 

     This program is part of the open-source Quantum ESPRESSO suite
     for quantum simulation of materials; please cite
         "P. Giannozzi et al., J. Phys.:Condens. Matter 21 395502 (2009);
          URL http://www.quantum-espresso.org", 
     in publications or presentations arising from this work. More details at
     http://www.quantum-espresso.org/quote

     Parallel version (MPI), running on     1 processors
     Waiting for input...
     Reading input from standard input

     Current dimensions of program PWSCF are:
     Max number of different atomic species (ntypx) = 10
     Max number of k-points (npk) =  40000
     Max angular momentum in pseudopotentials (lmaxx) =  3

     Atomic positions and unit cell read from directory:
     ./out/Si.save/

               file Si.pbe-mt_fhi.UPF: wavefunction(s)  4f renormalized

     Subspace diagonalization in iterative solution of the eigenvalue problem:
     a serial algorithm will be used


     G-vector sticks info
     --------------------
     sticks:   dense  smooth     PW     G-vecs:    dense   smooth      PW
     Sum         733     733    211                12939    12939    2109



     bravais-lattice index     =            2
     lattice parameter (alat)  =      10.2623  a.u.
     unit-cell volume          =     270.1967 (a.u.)^3
     number of atoms/cell      =            2
     number of atomic types    =            1
     number of electrons       =        18.00
     number of Kohn-Sham states=           10
     kinetic-energy cutoff     =      50.0000  Ry
     charge density cutoff     =     200.0000  Ry
     Exchange-correlation      = PBE ( 1  4  3  4 0)

     celldm(1)=  10.262347  celldm(2)=   0.000000  celldm(3)=   0.000000
     celldm(4)=   0.000000  celldm(5)=   0.000000  celldm(6)=   0.000000

     crystal axes: (cart. coord. in units of alat)
               a(1) = (  -0.500000   0.000000   0.500000 )  
               a(2) = (   0.000000   0.500000   0.500000 )  
               a(3) = (  -0.500000   0.500000   0.000000 )  

     reciprocal axes: (cart. coord. in units 2 pi/alat)
               b(1) = ( -1.000000 -1.000000  1.000000 )  
               b(2) = (  1.000000  1.000000  1.000000 )  
               b(3) = ( -1.000000  1.000000 -1.000000 )  


     PseudoPot. # 1 for Si read from file:
     /home/acedemo/psudo/Si.pbe-mt_fhi.UPF
     MD5 check sum: 259057c2adf9952f9ced37ae3d9e311d
     Pseudo is Norm-conserving, Zval =  4.0
     Generated using FHI98PP, converted with fhi2upf.x v.5.0.2
     Using radial grid of  495 points,  3 beta functions with: 
                l(1) =   0
                l(2) =   1
                l(3) =   3

     atomic species   valence    mass     pseudopotential
        Si             4.00    28.08550     Si( 1.00)

     48 Sym. Ops., with inversion, found (24 have fractional translation)



   Cartesian axes

     site n.     atom                  positions (alat units)
         1           Si  tau(   1) = (   0.0000000   0.0000000   0.0000000  )
         2           Si  tau(   2) = (   0.2500000   0.2500000   0.2500000  )

     number of k points=    51  Marzari-Vanderbilt smearing, width (Ry)=  0.0500
                       cart. coord. in units 2pi/alat
        k(    1) = (   0.5000000   0.5000000   0.5000000), wk =   0.0000000
        k(    2) = (   0.4500000   0.4500000   0.4500000), wk =   0.0014779
        k(    3) = (   0.4000000   0.4000000   0.4000000), wk =   0.0029558
        k(    4) = (   0.3500000   0.3500000   0.3500000), wk =   0.0044337
        k(    5) = (   0.3000000   0.3000000   0.3000000), wk =   0.0059116
        k(    6) = (   0.2500000   0.2500000   0.2500000), wk =   0.0073895
        k(    7) = (   0.2000000   0.2000000   0.2000000), wk =   0.0088674
        k(    8) = (   0.1500000   0.1500000   0.1500000), wk =   0.0103453
        k(    9) = (   0.1000000   0.1000000   0.1000000), wk =   0.0118232
        k(   10) = (   0.0500000   0.0500000   0.0500000), wk =   0.0133011
        k(   11) = (   0.0000000   0.0000000   0.0000000), wk =   0.0147790
        k(   12) = (   0.0000000   0.1000000   0.0000000), wk =   0.0168691
        k(   13) = (   0.0000000   0.2000000   0.0000000), wk =   0.0189591
        k(   14) = (   0.0000000   0.3000000   0.0000000), wk =   0.0210492
        k(   15) = (   0.0000000   0.4000000   0.0000000), wk =   0.0231392
        k(   16) = (   0.0000000   0.5000000   0.0000000), wk =   0.0252293
        k(   17) = (   0.0000000   0.6000000   0.0000000), wk =   0.0273194
        k(   18) = (   0.0000000   0.7000000   0.0000000), wk =   0.0294094
        k(   19) = (   0.0000000   0.8000000   0.0000000), wk =   0.0314995
        k(   20) = (   0.0000000   0.9000000   0.0000000), wk =   0.0335896
        k(   21) = (   0.0000000   1.0000000   0.0000000), wk =   0.0356796
        k(   22) = (   0.0000000   0.9750000   0.0750000), wk =   0.0370621
        k(   23) = (   0.0000000   0.9500000   0.1500000), wk =   0.0384445
        k(   24) = (  -0.0000000   0.9250000   0.2250000), wk =   0.0398270
        k(   25) = (  -0.0000000   0.9000000   0.3000000), wk =   0.0412094
        k(   26) = (   0.0000000   0.8750000   0.3750000), wk =   0.0425919
        k(   27) = (   0.0000000   0.8500000   0.4500000), wk =   0.0439743
        k(   28) = (   0.0000000   0.8250000   0.5250000), wk =   0.0453568
        k(   29) = (  -0.0000000   0.8000000   0.6000000), wk =   0.0467392
        k(   30) = (  -0.0000000   0.7750000   0.6750000), wk =   0.0481217
        k(   31) = (   0.0000000   0.7500000   0.7500000), wk =   0.0495041
        k(   32) = (   0.0000000   0.7250000   0.7750000), wk =   0.0500266
        k(   33) = (   0.0000000   0.7000000   0.8000000), wk =   0.0505491
        k(   34) = (   0.0000000   0.6750000   0.8250000), wk =   0.0510717
        k(   35) = (   0.0000000   0.6500000   0.8500000), wk =   0.0515942
        k(   36) = (   0.0000000   0.6250000   0.8750000), wk =   0.0521167
        k(   37) = (   0.0000000   0.6000000   0.9000000), wk =   0.0526392
        k(   38) = (   0.0000000   0.5750000   0.9250000), wk =   0.0531617
        k(   39) = (   0.0000000   0.5500000   0.9500000), wk =   0.0536842
        k(   40) = (   0.0000000   0.5250000   0.9750000), wk =   0.0542067
        k(   41) = (   0.0000000   0.5000000   1.0000000), wk =   0.0547293
        k(   42) = (   0.0000000   0.4500000   0.9000000), wk =   0.0574942
        k(   43) = (  -0.0000000   0.4000000   0.8000000), wk =   0.0602591
        k(   44) = (  -0.0000000   0.3500000   0.7000000), wk =   0.0630239
        k(   45) = (  -0.0000000   0.3000000   0.6000000), wk =   0.0657888
        k(   46) = (   0.0000000   0.2500000   0.5000000), wk =   0.0685537
        k(   47) = (   0.0000000   0.2000000   0.4000000), wk =   0.0713186
        k(   48) = (   0.0000000   0.1500000   0.3000000), wk =   0.0740835
        k(   49) = (  -0.0000000   0.1000000   0.2000000), wk =   0.0768484
        k(   50) = (  -0.0000000   0.0500000   0.1000000), wk =   0.0796133
        k(   51) = (   0.0000000   0.0000000   0.0000000), wk =   0.0823782

     Dense  grid:    12939 G-vectors     FFT dimensions: (  36,  36,  36)

     Largest allocated arrays     est. size (Mb)     dimensions
        Kohn-Sham Wavefunctions         0.25 Mb     (    1639,   10)
        NL pseudopotentials             0.55 Mb     (    1639,   22)
        Each V/rho on FFT grid          0.71 Mb     (   46656)
        Each G-vector array             0.10 Mb     (   12939)
        G-vector shells                 0.00 Mb     (     180)
     Largest temporary arrays     est. size (Mb)     dimensions
        Auxiliary wavefunctions         1.00 Mb     (    1639,   40)
        Each subspace H/S matrix        0.02 Mb     (      40,   40)
        Each <psi_i|beta_j> matrix      0.00 Mb     (      22,   10)

     The potential is recalculated from file :
     ./out/Si.save/charge-density.dat

     Starting wfc are   32 randomized atomic wfcs

     Band Structure Calculation
     Davidson diagonalization with overlap

     ethr =  8.89E-12,  avg # of iterations = 19.5

     total cpu time spent up to now is       33.1 secs

     End of band structure calculation

          k = 0.5000 0.5000 0.5000 (  1622 PWs)   bands (ev):

    -5.1794  -3.2388   3.4058   3.4058   5.4482   6.8019   6.8019   9.3555
    14.5013  14.5013

          k = 0.4500 0.4500 0.4500 (  1610 PWs)   bands (ev):

    -5.3796  -2.9719   3.4221   3.4221   5.4655   6.8387   6.8387   9.4049
    13.6993  13.6993

          k = 0.4000 0.4000 0.4000 (  1616 PWs)   bands (ev):

    -5.7988  -2.3534   3.4714   3.4714   5.5179   6.9439   6.9439   9.5507
    12.7376  12.7376

          k = 0.3500 0.3500 0.3500 (  1610 PWs)   bands (ev):

    -6.2520  -1.5694   3.5555   3.5555   5.6070   7.1009   7.1009   9.7836
    11.8697  11.8697

          k = 0.3000 0.3000 0.3000 (  1615 PWs)   bands (ev):

    -6.6749  -0.6871   3.6761   3.6761   5.7340   7.2733   7.2733  10.0798
    11.1421  11.1421

          k = 0.2500 0.2500 0.2500 (  1618 PWs)   bands (ev):

    -7.0455   0.2670   3.8342   3.8342   5.8987   7.3925   7.3925  10.3401
    10.6241  10.6241

          k = 0.2000 0.2000 0.2000 (  1606 PWs)   bands (ev):

    -7.3545   1.2756   4.0282   4.0282   6.0965   7.3646   7.3646  10.1114
    10.4081  10.4081

          k = 0.1500 0.1500 0.1500 (  1600 PWs)   bands (ev):

    -7.5976   2.3191   4.2517   4.2517   6.3121   7.1550   7.1550   9.4524
    10.5263  10.5263

          k = 0.1000 0.1000 0.1000 (  1606 PWs)   bands (ev):

    -7.7725   3.3609   4.4866   4.4866   6.5015   6.8474   6.8474   8.7375
    10.5008  10.8896

          k = 0.0500 0.0500 0.0500 (  1630 PWs)   bands (ev):

    -7.8779   4.3014   4.6891   4.6891   6.5508   6.5703   6.5703   8.1244
     9.9201  11.3407

          k = 0.0000 0.0000 0.0000 (  1639 PWs)   bands (ev):

    -7.9131   4.7761   4.7761   4.7761   6.4539   6.4539   6.4539   7.8880
     9.6966  11.5880

          k = 0.0000 0.1000 0.0000 (  1627 PWs)   bands (ev):

    -7.8661   4.4867   4.4867   4.4913   6.2510   6.7983   6.7983   8.1598
     9.9859  10.9549

          k = 0.0000 0.2000 0.0000 (  1599 PWs)   bands (ev):

    -7.7255   3.8347   3.9353   3.9353   5.7886   7.5123   7.5123   8.5432
    10.1106  10.7062

          k = 0.0000 0.3000 0.0000 (  1607 PWs)   bands (ev):

    -7.4917   3.0310   3.3669   3.3669   5.2587   7.9356   8.3438   8.3438
    10.4402  11.6612

          k = 0.0000 0.4000 0.0000 (  1607 PWs)   bands (ev):

    -7.1657   2.1620   2.8450   2.8450   4.7535   6.8990   9.2199   9.2199
    11.4019  12.3738

          k = 0.0000 0.5000 0.0000 (  1612 PWs)   bands (ev):

    -6.7489   1.2508   2.3902   2.3902   4.3120   5.9363  10.1126  10.1126
    12.4812  12.8152

          k = 0.0000 0.6000 0.0000 (  1620 PWs)   bands (ev):

    -6.2432   0.3088   2.0115   2.0115   3.9527   5.1307  11.0108  11.0108
    13.3540  13.5592

          k = 0.0000 0.7000 0.0000 (  1632 PWs)   bands (ev):

    -5.6514  -0.6487   1.7137   1.7137   3.6866   4.4963  11.9150  11.9150
    13.9899  14.5687

          k = 0.0000 0.8000 0.0000 (  1624 PWs)   bands (ev):

    -4.9773  -1.6007   1.4993   1.4993   3.5215   4.0262  12.8315  12.8315
    14.7223  15.4745

          k = 0.0000 0.9000 0.0000 (  1608 PWs)   bands (ev):

    -4.2263  -2.5258   1.3702   1.3702   3.4644   3.7064  13.7610  13.7610
    15.5504  15.8359

          k = 0.0000 1.0000 0.0000 (  1604 PWs)   bands (ev):

    -3.4057  -3.4057   1.3270   1.3270   3.5230   3.5230  14.4965  14.4965
    15.0725  15.0725

          k = 0.0000 0.9750 0.0750 (  1618 PWs)   bands (ev):

    -3.6009  -3.1776   1.1715   1.1804   3.7139   3.7672  13.9253  14.2566
    14.7342  15.0862

          k = 0.0000 0.9500 0.1500 (  1622 PWs)   bands (ev):

    -3.7572  -2.9285   0.8167   0.8709   4.2310   4.3181  12.7305  13.6299
    14.3393  15.3072

          k =-0.0000 0.9250 0.2250 (  1622 PWs)   bands (ev):

    -3.8718  -2.6804   0.4114   0.5623   4.9214   5.0298  11.4514  12.8127
    14.0759  15.5006

          k =-0.0000 0.9000 0.3000 (  1623 PWs)   bands (ev):

    -3.9446  -2.4706   0.0250   0.3525   5.7123   5.8322  10.1888  11.9796
    13.8311  15.4690

          k = 0.0000 0.8750 0.3750 (  1614 PWs)   bands (ev):

    -3.9768  -2.3469  -0.3136   0.3108   6.5691   6.6655   9.0049  11.1768
    13.5709  15.1570

          k = 0.0000 0.8500 0.4500 (  1612 PWs)   bands (ev):

    -3.9715  -2.3363  -0.5889   0.4695   7.1456   7.4615   8.2874  10.4333
    13.2791  14.6546

          k = 0.0000 0.8250 0.5250 (  1611 PWs)   bands (ev):

    -3.9330  -2.4173  -0.7908   0.8013   6.3763   8.3017   8.9423   9.8329
    12.9497  14.0521

          k =-0.0000 0.8000 0.6000 (  1614 PWs)   bands (ev):

    -3.8666  -2.5441  -0.9108   1.2366   5.3904   8.5632   9.8942   9.9606
    12.5891  13.4198

          k =-0.0000 0.7750 0.6750 (  1621 PWs)   bands (ev):

    -3.7776  -2.6805  -0.9421   1.6631   4.5424   8.1143  10.7312  11.0607
    12.2191  12.7989

          k = 0.0000 0.7500 0.7500 (  1624 PWs)   bands (ev):

    -3.6703  -2.8075  -0.8803   1.8250   4.0988   7.5784  11.5428  12.0208
    12.1559  12.2581

          k = 0.0000 0.7250 0.7750 (  1616 PWs)   bands (ev):

    -3.6644  -2.8070  -0.8748   1.7513   4.1876   7.5822  11.3546  11.7756
    12.2086  12.6439

          k = 0.0000 0.7000 0.8000 (  1621 PWs)   bands (ev):

    -3.6466  -2.8057  -0.8583   1.5587   4.4259   7.5933  11.0363  11.3561
    12.5258  13.0791

          k = 0.0000 0.6750 0.8250 (  1620 PWs)   bands (ev):

    -3.6169  -2.8048  -0.8308   1.2994   4.7623   7.6112  10.7014  10.9448
    12.8589  13.5142

          k = 0.0000 0.6500 0.8500 (  1616 PWs)   bands (ev):

    -3.5754  -2.8060  -0.7924   1.0129   5.1581   7.6348  10.3675  10.5439
    13.1904  13.9419

          k = 0.0000 0.6250 0.8750 (  1616 PWs)   bands (ev):

    -3.5221  -2.8122  -0.7431   0.7233   5.5910   7.6624  10.0415  10.1555
    13.5141  14.3506

          k = 0.0000 0.6000 0.9000 (  1613 PWs)   bands (ev):

    -3.4569  -2.8271  -0.6831   0.4460   6.0467   7.6908   9.7289   9.7826
    13.8264  14.7178

          k = 0.0000 0.5750 0.9250 (  1615 PWs)   bands (ev):

    -3.3800  -2.8556  -0.6124   0.1925   6.5133   7.7143   9.4308   9.4369
    14.1242  14.9998

          k = 0.0000 0.5500 0.9500 (  1615 PWs)   bands (ev):

    -3.2914  -2.9036  -0.5311  -0.0277   6.9739   7.7234   9.1136   9.1764
    14.4047  15.1292

          k = 0.0000 0.5250 0.9750 (  1615 PWs)   bands (ev):

    -3.1910  -2.9766  -0.4395  -0.2064   7.3862   7.7021   8.8708   8.9640
    14.6643  15.0766

          k = 0.0000 0.5000 1.0000 (  1628 PWs)   bands (ev):

    -3.0790  -3.0790  -0.3378  -0.3378   7.6308   7.6308   8.8201   8.8201
    14.8978  14.8978

          k = 0.0000 0.4500 0.9000 (  1616 PWs)   bands (ev):

    -3.6698  -2.5698  -0.5453   0.1550   7.2607   7.4135   8.4708   9.9701
    13.8440  15.1450

          k =-0.0000 0.4000 0.8000 (  1616 PWs)   bands (ev):

    -4.4066  -1.9838  -0.3983   0.7679   6.9361   6.9757   8.2534  11.5487
    12.7546  14.2386

          k =-0.0000 0.3500 0.7000 (  1618 PWs)   bands (ev):

    -5.1592  -1.3184  -0.0207   1.4735   6.5306   6.8094   8.1466  11.6030
    13.1928  13.2462

          k =-0.0000 0.3000 0.6000 (  1609 PWs)   bands (ev):

    -5.8578  -0.5705   0.5186   2.2260   6.2298   6.8091   8.1121  10.6141
    12.2357  14.1974

          k = 0.0000 0.2500 0.5000 (  1610 PWs)   bands (ev):

    -6.4711   0.2614   1.1838   2.9568   6.0414   7.0352   8.0864   9.6827
    11.4543  13.8259

          k = 0.0000 0.2000 0.4000 (  1613 PWs)   bands (ev):

    -6.9837   1.1759   1.9491   3.5881   5.9678   7.5323   7.9845   8.8247
    10.9208  12.9839

          k = 0.0000 0.1500 0.3000 (  1607 PWs)   bands (ev):

    -7.3878   2.1651   2.7844   4.0787   6.0076   7.6661   8.0435   8.3390
    10.5435  11.7373

          k =-0.0000 0.1000 0.2000 (  1600 PWs)   bands (ev):

    -7.6789   3.2048   3.6394   4.4408   6.1499   7.2708   7.3425   8.8591
    10.1734  10.9303

          k =-0.0000 0.0500 0.1000 (  1623 PWs)   bands (ev):

    -7.8544   4.2114   4.4040   4.6845   6.3464   6.7488   6.7985   8.2516
    10.0568  10.9427

          k = 0.0000 0.0000 0.0000 (  1639 PWs)   bands (ev):

    -7.9131   4.7761   4.7761   4.7761   6.4539   6.4539   6.4539   7.8880
     9.6966  11.5880

     Writing output data file Si.save

     init_run     :      0.17s CPU      0.17s WALL (       1 calls)
     electrons    :     29.07s CPU     31.38s WALL (       1 calls)

     Called by init_run:
     wfcinit      :      0.00s CPU      0.00s WALL (       1 calls)
     potinit      :      0.05s CPU      0.05s WALL (       1 calls)

     Called by electrons:
     c_bands      :     29.07s CPU     31.38s WALL (       1 calls)
     v_of_rho     :      0.04s CPU      0.04s WALL (       1 calls)

     Called by c_bands:
     init_us_2    :      0.10s CPU      0.10s WALL (      51 calls)
     cegterg      :     22.91s CPU     24.77s WALL (      64 calls)

     Called by *egterg:
     h_psi        :     24.32s CPU     26.30s WALL (    1112 calls)
     g_psi        :      0.06s CPU      0.06s WALL (     997 calls)
     cdiaghg      :      0.51s CPU      0.55s WALL (    1048 calls)

     Called by h_psi:
     add_vuspsi   :      0.70s CPU      0.73s WALL (    1112 calls)

     General routines
     calbec       :      0.82s CPU      0.91s WALL (    1112 calls)
     fft          :      0.02s CPU      0.02s WALL (      10 calls)
     fftw         :     21.49s CPU     23.23s WALL (   15810 calls)
     davcio       :      0.00s CPU      0.00s WALL (      51 calls)

     Parallel routines
     fft_scatter  :      0.53s CPU      0.56s WALL (   15820 calls)

     PWSCF        :    30.70s CPU        33.25s WALL


   This run was terminated on:  17:49:43  13Feb2023            

=------------------------------------------------------------------------------=
   JOB DONE.
=------------------------------------------------------------------------------=
