
     Program PWSCF v.5.1 starts on 14Feb2023 at 18:58:26 

     This program is part of the open-source Quantum ESPRESSO suite
     for quantum simulation of materials; please cite
         "P. Giannozzi et al., J. Phys.:Condens. Matter 21 395502 (2009);
          URL http://www.quantum-espresso.org", 
     in publications or presentations arising from this work. More details at
     http://www.quantum-espresso.org/quote

     Parallel version (MPI), running on     1 processors
     Waiting for input...
     Reading input from standard input

     Current dimensions of program PWSCF are:
     Max number of different atomic species (ntypx) = 10
     Max number of k-points (npk) =  40000
     Max angular momentum in pseudopotentials (lmaxx) =  3

     Atomic positions and unit cell read from directory:
     ./out/Si.save/

               file Si.pbe-mt_fhi.UPF: wavefunction(s)  4f renormalized

     Subspace diagonalization in iterative solution of the eigenvalue problem:
     a serial algorithm will be used


     G-vector sticks info
     --------------------
     sticks:   dense  smooth     PW     G-vecs:    dense   smooth      PW
     Sum         733     733    223                12939    12939    2229



     bravais-lattice index     =            2
     lattice parameter (alat)  =      10.2623  a.u.
     unit-cell volume          =     270.1967 (a.u.)^3
     number of atoms/cell      =            2
     number of atomic types    =            1
     number of electrons       =        18.00
     number of Kohn-Sham states=           10
     kinetic-energy cutoff     =      50.0000  Ry
     charge density cutoff     =     200.0000  Ry
     Exchange-correlation      = PBE ( 1  4  3  4 0)

     celldm(1)=  10.262347  celldm(2)=   0.000000  celldm(3)=   0.000000
     celldm(4)=   0.000000  celldm(5)=   0.000000  celldm(6)=   0.000000

     crystal axes: (cart. coord. in units of alat)
               a(1) = (  -0.500000   0.000000   0.500000 )  
               a(2) = (   0.000000   0.500000   0.500000 )  
               a(3) = (  -0.500000   0.500000   0.000000 )  

     reciprocal axes: (cart. coord. in units 2 pi/alat)
               b(1) = ( -1.000000 -1.000000  1.000000 )  
               b(2) = (  1.000000  1.000000  1.000000 )  
               b(3) = ( -1.000000  1.000000 -1.000000 )  


     PseudoPot. # 1 for Si read from file:
     /home/acedemo/psudo/Si.pbe-mt_fhi.UPF
     MD5 check sum: 259057c2adf9952f9ced37ae3d9e311d
     Pseudo is Norm-conserving, Zval =  4.0
     Generated using FHI98PP, converted with fhi2upf.x v.5.0.2
     Using radial grid of  495 points,  3 beta functions with: 
                l(1) =   0
                l(2) =   1
                l(3) =   3

     atomic species   valence    mass     pseudopotential
        Si             4.00    28.08550     Si( 1.00)

     48 Sym. Ops., with inversion, found (24 have fractional translation)



   Cartesian axes

     site n.     atom                  positions (alat units)
         1           Si  tau(   1) = (   0.0000000   0.0000000   0.0000000  )
         2           Si  tau(   2) = (   0.2500000   0.2500000   0.2500000  )

     number of k points=    72 (tetrahedron method)
                       cart. coord. in units 2pi/alat
        k(    1) = (   0.0000000   0.0000000   0.0000000), wk =   0.0011574
        k(    2) = (  -0.0833333   0.0833333  -0.0833333), wk =   0.0092593
        k(    3) = (  -0.1666667   0.1666667  -0.1666667), wk =   0.0092593
        k(    4) = (  -0.2500000   0.2500000  -0.2500000), wk =   0.0092593
        k(    5) = (  -0.3333333   0.3333333  -0.3333333), wk =   0.0092593
        k(    6) = (  -0.4166667   0.4166667  -0.4166667), wk =   0.0092593
        k(    7) = (   0.5000000  -0.5000000   0.5000000), wk =   0.0046296
        k(    8) = (   0.0000000   0.1666667   0.0000000), wk =   0.0069444
        k(    9) = (  -0.0833333   0.2500000  -0.0833333), wk =   0.0277778
        k(   10) = (  -0.1666667   0.3333333  -0.1666667), wk =   0.0277778
        k(   11) = (  -0.2500000   0.4166667  -0.2500000), wk =   0.0277778
        k(   12) = (  -0.3333333   0.5000000  -0.3333333), wk =   0.0277778
        k(   13) = (   0.5833333  -0.4166667   0.5833333), wk =   0.0277778
        k(   14) = (   0.5000000  -0.3333333   0.5000000), wk =   0.0277778
        k(   15) = (   0.4166667  -0.2500000   0.4166667), wk =   0.0277778
        k(   16) = (   0.3333333  -0.1666667   0.3333333), wk =   0.0277778
        k(   17) = (   0.2500000  -0.0833333   0.2500000), wk =   0.0277778
        k(   18) = (   0.1666667  -0.0000000   0.1666667), wk =   0.0138889
        k(   19) = (   0.0000000   0.3333333   0.0000000), wk =   0.0069444
        k(   20) = (  -0.0833333   0.4166667  -0.0833333), wk =   0.0277778
        k(   21) = (  -0.1666667   0.5000000  -0.1666667), wk =   0.0277778
        k(   22) = (  -0.2500000   0.5833333  -0.2500000), wk =   0.0277778
        k(   23) = (   0.6666667  -0.3333333   0.6666667), wk =   0.0277778
        k(   24) = (   0.5833333  -0.2500000   0.5833333), wk =   0.0277778
        k(   25) = (   0.5000000  -0.1666667   0.5000000), wk =   0.0277778
        k(   26) = (   0.4166667  -0.0833333   0.4166667), wk =   0.0277778
        k(   27) = (   0.3333333   0.0000000   0.3333333), wk =   0.0138889
        k(   28) = (   0.0000000   0.5000000   0.0000000), wk =   0.0069444
        k(   29) = (  -0.0833333   0.5833333  -0.0833333), wk =   0.0277778
        k(   30) = (  -0.1666667   0.6666667  -0.1666667), wk =   0.0277778
        k(   31) = (   0.7500000  -0.2500000   0.7500000), wk =   0.0277778
        k(   32) = (   0.6666667  -0.1666667   0.6666667), wk =   0.0277778
        k(   33) = (   0.5833333  -0.0833333   0.5833333), wk =   0.0277778
        k(   34) = (   0.5000000   0.0000000   0.5000000), wk =   0.0138889
        k(   35) = (   0.0000000   0.6666667   0.0000000), wk =   0.0069444
        k(   36) = (  -0.0833333   0.7500000  -0.0833333), wk =   0.0277778
        k(   37) = (   0.8333333  -0.1666667   0.8333333), wk =   0.0277778
        k(   38) = (   0.7500000  -0.0833333   0.7500000), wk =   0.0277778
        k(   39) = (   0.6666667   0.0000000   0.6666667), wk =   0.0138889
        k(   40) = (   0.0000000   0.8333333   0.0000000), wk =   0.0069444
        k(   41) = (   0.9166667  -0.0833333   0.9166667), wk =   0.0277778
        k(   42) = (   0.8333333   0.0000000   0.8333333), wk =   0.0138889
        k(   43) = (   0.0000000  -1.0000000   0.0000000), wk =   0.0034722
        k(   44) = (  -0.1666667   0.3333333   0.0000000), wk =   0.0277778
        k(   45) = (  -0.2500000   0.4166667  -0.0833333), wk =   0.0555556
        k(   46) = (  -0.3333333   0.5000000  -0.1666667), wk =   0.0555556
        k(   47) = (   0.5833333  -0.4166667   0.7500000), wk =   0.0555556
        k(   48) = (   0.5000000  -0.3333333   0.6666667), wk =   0.0277778
        k(   49) = (  -0.1666667   0.5000000   0.0000000), wk =   0.0277778
        k(   50) = (  -0.2500000   0.5833333  -0.0833333), wk =   0.0555556
        k(   51) = (   0.6666667  -0.3333333   0.8333333), wk =   0.0555556
        k(   52) = (   0.5833333  -0.2500000   0.7500000), wk =   0.0555556
        k(   53) = (   0.5000000  -0.1666667   0.6666667), wk =   0.0555556
        k(   54) = (   0.4166667  -0.0833333   0.5833333), wk =   0.0555556
        k(   55) = (   0.3333333   0.0000000   0.5000000), wk =   0.0277778
        k(   56) = (  -0.1666667   0.6666667  -0.0000000), wk =   0.0277778
        k(   57) = (   0.7500000  -0.2500000   0.9166667), wk =   0.0555556
        k(   58) = (   0.6666667  -0.1666667   0.8333333), wk =   0.0555556
        k(   59) = (   0.5833333  -0.0833333   0.7500000), wk =   0.0555556
        k(   60) = (   0.5000000   0.0000000   0.6666667), wk =   0.0277778
        k(   61) = (   0.8333333  -0.1666667   1.0000000), wk =   0.0277778
        k(   62) = (   0.7500000  -0.0833333   0.9166667), wk =   0.0555556
        k(   63) = (   0.6666667   0.0000000   0.8333333), wk =   0.0277778
        k(   64) = (  -0.1666667  -1.0000000   0.0000000), wk =   0.0138889
        k(   65) = (   0.6666667  -0.3333333   1.0000000), wk =   0.0277778
        k(   66) = (   0.5833333  -0.2500000   0.9166667), wk =   0.0555556
        k(   67) = (   0.5000000  -0.1666667   0.8333333), wk =   0.0277778
        k(   68) = (   0.6666667  -0.1666667   1.0000000), wk =   0.0277778
        k(   69) = (   0.5833333  -0.0833333   0.9166667), wk =   0.0555556
        k(   70) = (   0.5000000   0.0000000   0.8333333), wk =   0.0277778
        k(   71) = (  -0.3333333  -1.0000000   0.0000000), wk =   0.0138889
        k(   72) = (  -0.5000000  -1.0000000   0.0000000), wk =   0.0069444

     Dense  grid:    12939 G-vectors     FFT dimensions: (  36,  36,  36)

     Largest allocated arrays     est. size (Mb)     dimensions
        Kohn-Sham Wavefunctions         0.25 Mb     (    1639,   10)
        NL pseudopotentials             0.55 Mb     (    1639,   22)
        Each V/rho on FFT grid          0.71 Mb     (   46656)
        Each G-vector array             0.10 Mb     (   12939)
        G-vector shells                 0.00 Mb     (     180)
     Largest temporary arrays     est. size (Mb)     dimensions
        Auxiliary wavefunctions         1.00 Mb     (    1639,   40)
        Each subspace H/S matrix        0.02 Mb     (      40,   40)
        Each <psi_i|beta_j> matrix      0.00 Mb     (      22,   10)

     The potential is recalculated from file :
     ./out/Si.save/charge-density.dat

     Starting wfc are   32 randomized atomic wfcs

     Band Structure Calculation
     Davidson diagonalization with overlap

     ethr =  8.89E-12,  avg # of iterations = 20.7

     Warning: ef = 12.940063 is above the highest band at k-point   1
              e  =  11.572273

     Warning: ef = 12.940063 is above the highest band at k-point   2
              e  =  11.028616

     Warning: ef = 12.940063 is above the highest band at k-point   3
              e  =  10.444348

     Warning: ef = 12.940063 is above the highest band at k-point   4
              e  =  10.615302

     Warning: ef = 12.940063 is above the highest band at k-point   5
              e  =  11.599447

     Warning: ef = 12.940063 is above the highest band at k-point   8
              e  =  10.450203

     Warning: ef = 12.940063 is above the highest band at k-point   9
              e  =  11.410201

     Warning: ef = 12.940063 is above the highest band at k-point  10
              e  =  11.401525

     Warning: ef = 12.940063 is above the highest band at k-point  11
              e  =  12.196473

     Warning: ef = 12.940063 is above the highest band at k-point  15
              e  =  11.963164

     Warning: ef = 12.940063 is above the highest band at k-point  16
              e  =  11.640365

     Warning: ef = 12.940063 is above the highest band at k-point  17
              e  =  11.657187

     Warning: ef = 12.940063 is above the highest band at k-point  18
              e  =  11.062754

     Warning: ef = 12.940063 is above the highest band at k-point  19
              e  =  12.025753

     Warning: ef = 12.940063 is above the highest band at k-point  20
              e  =  12.240655

     Warning: ef = 12.940063 is above the highest band at k-point  21
              e  =  12.869251

     Warning: ef = 12.940063 is above the highest band at k-point  24
              e  =  12.523438

     Warning: ef = 12.940063 is above the highest band at k-point  25
              e  =  12.510627

     Warning: ef = 12.940063 is above the highest band at k-point  28
              e  =  12.799364

     Warning: ef = 12.940063 is above the highest band at k-point  32
              e  =  12.523551

     Warning: ef = 12.940063 is above the highest band at k-point  33
              e  =  11.836150

     Warning: ef = 12.940063 is above the highest band at k-point  38
              e  =  12.875173

     Warning: ef = 12.940063 is above the highest band at k-point  39
              e  =  11.344264

     Warning: ef = 12.940063 is above the highest band at k-point  44
              e  =  12.069983

     Warning: ef = 12.940063 is above the highest band at k-point  45
              e  =  12.654802

     Warning: ef = 12.940063 is above the highest band at k-point  46
              e  =  12.481909

     Warning: ef = 12.940063 is above the highest band at k-point  53
              e  =  12.917330

     Warning: ef = 12.940063 is above the highest band at k-point  60
              e  =  11.968859

     total cpu time spent up to now is       37.4 secs

     End of band structure calculation

          k = 0.0000 0.0000 0.0000 (  1639 PWs)   bands (ev):

    -7.9217   4.7621   4.7621   4.7621   6.4425   6.4425   6.4425   7.8863
     9.7189  11.5723

          k =-0.0833 0.0833-0.0833 (  1612 PWs)   bands (ev):

    -7.8241   3.6825   4.5473   4.5473   6.5343   6.7335   6.7335   8.5072
    10.2988  11.0286

          k =-0.1667 0.1667-0.1667 (  1591 PWs)   bands (ev):

    -7.5329   1.9585   4.1611   4.1611   6.2363   7.2299   7.2299   9.6870
    10.4443  10.4443

          k =-0.2500 0.2500-0.2500 (  1618 PWs)   bands (ev):

    -7.0546   0.2576   3.8205   3.8205   5.8960   7.3818   7.3818  10.3548
    10.6153  10.6153

          k =-0.3333 0.3333-0.3333 (  1616 PWs)   bands (ev):

    -6.4075  -1.2928   3.5777   3.5777   5.6424   7.1499   7.1499   9.8967
    11.5994  11.5994

          k =-0.4167 0.4167-0.4167 (  1616 PWs)   bands (ev):

    -5.6602  -2.5907   3.4372   3.4372   5.4935   6.8934   6.8934   9.5123
    13.0403  13.0403

          k = 0.5000-0.5000 0.5000 (  1622 PWs)   bands (ev):

    -5.1914  -3.2443   3.3917   3.3917   5.4451   6.7936   6.7936   9.3764
    14.4915  14.4915

          k = 0.0000 0.1667 0.0000 (  1615 PWs)   bands (ev):

    -7.7915   4.0644   4.1138   4.1138   5.9507   7.2428   7.2428   8.4697
    10.3104  10.4502

          k =-0.0833 0.2500-0.0833 (  1599 PWs)   bands (ev):

    -7.5646   2.5475   3.6647   3.9842   5.9923   7.3664   7.8580   8.6887
    10.3350  11.4102

          k =-0.1667 0.3333-0.1667 (  1610 PWs)   bands (ev):

    -7.1478   0.8565   3.3201   3.5858   6.2018   7.2436   8.1540   8.5993
    11.3934  11.4015

          k =-0.2500 0.4167-0.2500 (  1606 PWs)   bands (ev):

    -6.5540  -0.7372   3.1139   3.1879   6.0673   7.0334   7.9393   9.2793
    11.1043  12.1965

          k =-0.3333 0.5000-0.3333 (  1616 PWs)   bands (ev):

    -5.8250  -2.1294   2.8556   3.0519   5.9031   6.8161   7.5527  10.0398
    11.2378  13.5294

          k = 0.5833-0.4167 0.5833 (  1615 PWs)   bands (ev):

    -5.1732  -3.0856   2.6098   3.1273   5.8664   6.7218   7.2434  10.1002
    12.5242  14.4140

          k = 0.5000-0.3333 0.5000 (  1616 PWs)   bands (ev):

    -5.3469  -2.8502   2.4703   3.3248   5.9659   6.7951   7.0973  10.1737
    12.6979  13.0686

          k = 0.4167-0.2500 0.4167 (  1611 PWs)   bands (ev):

    -6.0780  -1.6929   2.4575   3.6223   6.1540   7.0642   7.1215  10.2954
    11.1585  11.9632

          k = 0.3333-0.1667 0.3333 (  1605 PWs)   bands (ev):

    -6.7707  -0.2209   2.5884   3.9915   6.4030   7.2128   7.4477   9.8960
    10.0211  11.6404

          k = 0.2500-0.0833 0.2500 (  1600 PWs)   bands (ev):

    -7.3077   1.4116   2.8790   4.3847   6.7054   7.0646   7.5239   9.3884
     9.6437  11.6572

          k = 0.1667-0.0000 0.1667 (  1592 PWs)   bands (ev):

    -7.6618   2.9603   3.4539   4.6635   6.6989   6.8910   7.0440   9.1410
    10.1220  11.0628

          k = 0.0000 0.3333 0.0000 (  1607 PWs)   bands (ev):

    -7.4021   2.7340   3.1737   3.1737   5.0827   7.5954   8.6206   8.6206
    10.7270  12.0258

          k =-0.0833 0.4167-0.0833 (  1616 PWs)   bands (ev):

    -7.0485   1.4283   2.7963   2.8079   5.1488   6.9858   8.8279   9.1639
    11.9180  12.2407

          k =-0.1667 0.5000-0.1667 (  1611 PWs)   bands (ev):

    -6.5126  -0.0996   2.2786   2.5681   5.2946   7.2895   8.6150   9.1262
    12.6453  12.8693

          k =-0.2500 0.5833-0.2500 (  1610 PWs)   bands (ev):

    -5.8212  -1.5228   1.7788   2.4997   5.1965   8.0690   8.7271   8.7360
    12.2226  14.1072

          k = 0.6667-0.3333 0.6667 (  1607 PWs)   bands (ev):

    -5.0908  -2.6571   1.3757   2.5908   5.2144   8.0024   8.3343  10.0613
    11.9760  14.3576

          k = 0.5833-0.2500 0.5833 (  1602 PWs)   bands (ev):

    -4.9223  -2.8795   1.1024   2.8327   5.4335   7.8893   8.0490  11.4083
    11.8925  12.5234

          k = 0.5000-0.1667 0.5000 (  1610 PWs)   bands (ev):

    -5.5770  -1.9269   0.9844   3.2061   5.8455   7.8670   7.9053  10.8417
    10.9012  12.5106

          k = 0.4167-0.0833 0.4167 (  1613 PWs)   bands (ev):

    -6.3030  -0.5760   1.0541   3.6716   6.4002   7.8167   7.9213   9.6700
     9.6716  12.9923

          k = 0.3333 0.0000 0.3333 (  1604 PWs)   bands (ev):

    -6.8935   0.7554   1.5064   4.1387   6.9502   7.4661   7.7224   9.0238
     9.2513  13.0600

          k = 0.0000 0.5000 0.0000 (  1612 PWs)   bands (ev):

    -6.7581   1.2376   2.3779   2.3779   4.3121   5.9398  10.1011  10.1011
    12.4739  12.7994

          k =-0.0833 0.5833-0.0833 (  1617 PWs)   bands (ev):

    -6.2826   0.2245   1.7342   2.1083   4.4240   5.6321  10.3378  10.4687
    13.4031  13.7795

          k =-0.1667 0.6667-0.1667 (  1620 PWs)   bands (ev):

    -5.6398  -0.9837   0.9432   2.0027   4.4659   6.4625  10.1272  10.2010
    14.1044  14.6186

          k = 0.7500-0.2500 0.7500 (  1617 PWs)   bands (ev):

    -4.8957  -2.1213   0.3177   2.0644   4.4925   7.8435   9.7769   9.9101
    13.5446  14.4311

          k = 0.6667-0.1667 0.6667 (  1607 PWs)   bands (ev):

    -4.4381  -2.7026  -0.1103   2.2892   4.7083   9.0574   9.4170  10.1517
    12.4974  12.5236

          k = 0.5833-0.0833 0.5833 (  1611 PWs)   bands (ev):

    -4.9309  -2.0467  -0.3148   2.6631   5.1276   9.1568   9.2191  10.8488
    10.8956  11.8362

          k = 0.5000 0.0000 0.5000 (  1604 PWs)   bands (ev):

    -5.6692  -1.0443  -0.0986   3.1527   5.7249   8.7365   8.9532   9.7514
     9.8099  13.3888

          k = 0.0000 0.6667 0.0000 (  1624 PWs)   bands (ev):

    -5.8676  -0.3420   1.7916   1.7916   3.7661   4.6933  11.6023  11.6023
    13.7514  14.2365

          k =-0.0833 0.7500-0.0833 (  1618 PWs)   bands (ev):

    -5.2793  -1.1869   1.0393   1.6385   3.9015   4.7826  11.8042  11.8524
    14.7998  15.5098

          k = 0.8333-0.1667 0.8333 (  1619 PWs)   bands (ev):

    -4.5563  -2.0288   0.0230   1.6554   3.9534   6.0061  11.4453  11.6336
    14.5242  14.6407

          k = 0.7500-0.0833 0.7500 (  1620 PWs)   bands (ev):

    -3.9275  -2.6528  -0.7276   1.8409   4.1446   7.6065  11.0377  11.3751
    12.7019  12.8752

          k = 0.6667 0.0000 0.6667 (  1612 PWs)   bands (ev):

    -4.2219  -2.3556  -0.9815   2.1853   4.5400   9.2584  10.4897  11.1776
    11.1909  11.3443

          k = 0.0000 0.8333 0.0000 (  1628 PWs)   bands (ev):

    -4.7455  -1.9251   1.4347   1.4347   3.4928   3.9079  13.1314  13.1314
    14.9719  15.7488

          k = 0.9167-0.0833 0.9167 (  1622 PWs)   bands (ev):

    -4.0610  -2.6676   0.7177   1.4010   3.6262   4.3882  13.2320  13.3864
    14.9331  14.9552

          k = 0.8333 0.0000 0.8333 (  1614 PWs)   bands (ev):

    -3.4527  -3.1506  -0.2649   1.5385   3.7835   5.8589  12.6577  13.1212
    13.1960  13.2167

          k = 0.0000-1.0000 0.0000 (  1604 PWs)   bands (ev):

    -3.4168  -3.4168   1.3150   1.3150   3.5266   3.5266  14.4865  14.4865
    15.0667  15.0667

          k =-0.1667 0.3333 0.0000 (  1603 PWs)   bands (ev):

    -7.2745   1.8161   2.4908   3.9170   5.9766   7.7474   8.0848   8.2857
    10.6718  12.0700

          k =-0.2500 0.4167-0.0833 (  1607 PWs)   bands (ev):

    -6.7979   0.3852   1.9453   3.5598   6.2576   7.5383   7.9971   8.6255
    10.8923  12.6548

          k =-0.3333 0.5000-0.1667 (  1604 PWs)   bands (ev):

    -6.1530  -1.1089   1.7230   3.1331   6.2360   7.0654   8.5257   8.9652
    11.6255  12.4819

          k = 0.5833-0.4167 0.7500 (  1612 PWs)   bands (ev):

    -5.4070  -2.3858   1.6375   2.8070   6.2122   6.6536   8.3801  10.2758
    11.6909  13.3683

          k = 0.5000-0.3333 0.6667 (  1602 PWs)   bands (ev):

    -4.9365  -3.0358   1.6216   2.6821   6.2930   6.4132   8.3235  11.0280
    11.9173  13.0409

          k =-0.1667 0.5000 0.0000 (  1617 PWs)   bands (ev):

    -6.6343   0.6925   1.6837   2.7154   5.2394   6.4657   8.9549   9.8975
    12.0578  13.6863

          k =-0.2500 0.5833-0.0833 (  1611 PWs)   bands (ev):

    -6.0443  -0.5239   1.1093   2.2935   5.4801   6.8852   8.5722  10.1813
    12.6886  13.7642

          k = 0.6667-0.3333 0.8333 (  1617 PWs)   bands (ev):

    -5.3189  -1.7972   0.7804   1.9973   5.4900   7.7607   8.5157  10.0823
    13.0747  13.9046

          k = 0.5833-0.2500 0.7500 (  1607 PWs)   bands (ev):

    -4.6668  -2.7124   0.5149   1.9741   5.6292   7.5783   9.6754  10.1720
    11.9450  13.5897

          k = 0.5000-0.1667 0.6667 (  1605 PWs)   bands (ev):

    -4.8505  -2.4663   0.3376   2.2043   5.9471   7.3527   9.7625  10.2947
    11.7474  12.9173

          k = 0.4167-0.0833 0.5833 (  1610 PWs)   bands (ev):

    -5.5807  -1.3642   0.3235   2.6228   6.4268   7.2293   8.8273   9.7239
    11.6833  13.2411

          k = 0.3333 0.0000 0.5000 (  1606 PWs)   bands (ev):

    -6.2668  -0.2025   0.6957   3.1427   6.9185   7.0193   7.9486   9.4077
    10.8307  13.8525

          k =-0.1667 0.6667-0.0000 (  1626 PWs)   bands (ev):

    -5.7514  -0.5387   1.1050   1.6620   4.7017   5.3678  10.1650  11.5213
    13.6469  15.1463

          k = 0.7500-0.2500 0.9167 (  1621 PWs)   bands (ev):

    -5.0659  -1.4660   0.3383   1.3542   4.9115   6.2526   9.7115  11.7990
    14.0292  14.6534

          k = 0.6667-0.1667 0.8333 (  1616 PWs)   bands (ev):

    -4.3384  -2.3565  -0.2964   1.3732   5.0377   7.7174   9.3335  11.6638
    12.2413  14.7459

          k = 0.5833-0.0833 0.7500 (  1614 PWs)   bands (ev):

    -4.2072  -2.4854  -0.6692   1.6255   5.3395   8.6674   9.7004  10.5357
    11.5101  13.2383

          k = 0.5000 0.0000 0.6667 (  1621 PWs)   bands (ev):

    -4.8744  -1.7617  -0.6052   2.0625   5.8175   8.3747   9.0384  10.7644
    11.9161  11.9689

          k = 0.8333-0.1667 1.0000 (  1617 PWs)   bands (ev):

    -4.6440  -1.9332   0.7817   1.0081   4.4125   4.7038  11.4816  13.1355
    14.5106  15.2085

          k = 0.7500-0.0833 0.9167 (  1620 PWs)   bands (ev):

    -3.9067  -2.6226  -0.1439   0.9563   4.6222   5.9528  11.0384  12.5517
    13.4051  15.0991

          k = 0.6667 0.0000 0.8333 (  1620 PWs)   bands (ev):

    -3.6172  -2.8163  -0.8230   1.1966   4.8887   7.6162  10.5815  10.8039
    12.9623  13.6509

          k =-0.1667-1.0000 0.0000 (  1622 PWs)   bands (ev):

    -3.3475  -3.3475   0.7371   0.7371   4.4022   4.4022  12.9416  12.9416
    14.8114  14.8114

          k = 0.6667-0.3333 1.0000 (  1610 PWs)   bands (ev):

    -5.4103  -1.0907   0.1368   1.7134   6.4141   6.7889   8.1213  11.2618
    12.8515  13.6931

          k = 0.5833-0.2500 0.9167 (  1611 PWs)   bands (ev):

    -4.6721  -2.0047  -0.2177   1.2479   6.5878   7.3264   8.3917  11.5240
    12.0220  13.8990

          k = 0.5000-0.1667 0.8333 (  1610 PWs)   bands (ev):

    -4.1917  -2.5917  -0.2779   1.0721   6.6219   7.2430   9.6477  10.3302
    11.7332  14.8407

          k = 0.6667-0.1667 1.0000 (  1618 PWs)   bands (ev):

    -4.3582  -2.0532  -0.1263   0.5648   6.1261   6.3078   9.2087  12.1402
    13.1229  14.8663

          k = 0.5833-0.0833 0.9167 (  1615 PWs)   bands (ev):

    -3.7032  -2.6319  -0.5794   0.3784   6.3841   7.6984   8.8993  10.2606
    13.4642  15.3519

          k = 0.5000 0.0000 0.8333 (  1612 PWs)   bands (ev):

    -3.9613  -2.3952  -0.7365   0.6687   6.6966   8.0393   8.6377   9.9960
    13.0546  14.2509

          k =-0.3333-1.0000 0.0000 (  1618 PWs)   bands (ev):

    -3.1873  -3.1873  -0.0260  -0.0260   6.0848   6.0848  10.5820  10.5820
    14.8582  14.8582

          k =-0.5000-1.0000 0.0000 (  1628 PWs)   bands (ev):

    -3.0918  -3.0918  -0.3423  -0.3423   7.6302   7.6302   8.8118   8.8118
    14.8892  14.8892

     the Fermi energy is    12.9401 ev

     Writing output data file Si.save

     init_run     :      0.16s CPU      0.16s WALL (       1 calls)
     electrons    :     35.54s CPU     36.80s WALL (       1 calls)

     Called by init_run:
     wfcinit      :      0.00s CPU      0.00s WALL (       1 calls)
     potinit      :      0.04s CPU      0.04s WALL (       1 calls)

     Called by electrons:
     c_bands      :     35.41s CPU     36.65s WALL (       1 calls)
     v_of_rho     :      0.03s CPU      0.03s WALL (       1 calls)

     Called by c_bands:
     init_us_2    :      0.10s CPU      0.10s WALL (      72 calls)
     cegterg      :     28.35s CPU     29.32s WALL (     104 calls)

     Called by *egterg:
     h_psi        :     29.68s CPU     30.79s WALL (    1667 calls)
     g_psi        :      0.07s CPU      0.08s WALL (    1491 calls)
     cdiaghg      :      0.68s CPU      0.70s WALL (    1563 calls)

     Called by h_psi:
     add_vuspsi   :      0.85s CPU      0.88s WALL (    1667 calls)

     General routines
     calbec       :      0.93s CPU      0.96s WALL (    1667 calls)
     fft          :      0.02s CPU      0.02s WALL (      10 calls)
     fftw         :     26.42s CPU     27.39s WALL (   23308 calls)
     davcio       :      0.02s CPU      0.09s WALL (      72 calls)

     Parallel routines
     fft_scatter  :      0.66s CPU      0.67s WALL (   23318 calls)

     PWSCF        :    37.59s CPU        39.12s WALL


   This run was terminated on:  18:59: 5  14Feb2023            

=------------------------------------------------------------------------------=
   JOB DONE.
=------------------------------------------------------------------------------=
