
     Program PWSCF v.5.1 starts on 13Feb2023 at 17:48:25 

     This program is part of the open-source Quantum ESPRESSO suite
     for quantum simulation of materials; please cite
         "P. Giannozzi et al., J. Phys.:Condens. Matter 21 395502 (2009);
          URL http://www.quantum-espresso.org", 
     in publications or presentations arising from this work. More details at
     http://www.quantum-espresso.org/quote

     Parallel version (MPI), running on     1 processors
     Waiting for input...
     Reading input from standard input

     Current dimensions of program PWSCF are:
     Max number of different atomic species (ntypx) = 10
     Max number of k-points (npk) =  40000
     Max angular momentum in pseudopotentials (lmaxx) =  3

     Atomic positions and unit cell read from directory:
     ./out/Si.save/

               file Si.pbe-mt_fhi.UPF: wavefunction(s)  4f renormalized

     Subspace diagonalization in iterative solution of the eigenvalue problem:
     a serial algorithm will be used


     G-vector sticks info
     --------------------
     sticks:   dense  smooth     PW     G-vecs:    dense   smooth      PW
     Sum         733     733    223                12939    12939    2229



     bravais-lattice index     =            2
     lattice parameter (alat)  =      10.2623  a.u.
     unit-cell volume          =     270.1967 (a.u.)^3
     number of atoms/cell      =            2
     number of atomic types    =            1
     number of electrons       =        18.00
     number of Kohn-Sham states=           10
     kinetic-energy cutoff     =      50.0000  Ry
     charge density cutoff     =     200.0000  Ry
     Exchange-correlation      = PBE ( 1  4  3  4 0)

     celldm(1)=  10.262347  celldm(2)=   0.000000  celldm(3)=   0.000000
     celldm(4)=   0.000000  celldm(5)=   0.000000  celldm(6)=   0.000000

     crystal axes: (cart. coord. in units of alat)
               a(1) = (  -0.500000   0.000000   0.500000 )  
               a(2) = (   0.000000   0.500000   0.500000 )  
               a(3) = (  -0.500000   0.500000   0.000000 )  

     reciprocal axes: (cart. coord. in units 2 pi/alat)
               b(1) = ( -1.000000 -1.000000  1.000000 )  
               b(2) = (  1.000000  1.000000  1.000000 )  
               b(3) = ( -1.000000  1.000000 -1.000000 )  


     PseudoPot. # 1 for Si read from file:
     /home/acedemo/psudo/Si.pbe-mt_fhi.UPF
     MD5 check sum: 259057c2adf9952f9ced37ae3d9e311d
     Pseudo is Norm-conserving, Zval =  4.0
     Generated using FHI98PP, converted with fhi2upf.x v.5.0.2
     Using radial grid of  495 points,  3 beta functions with: 
                l(1) =   0
                l(2) =   1
                l(3) =   3

     atomic species   valence    mass     pseudopotential
        Si             4.00    28.08550     Si( 1.00)

     48 Sym. Ops., with inversion, found (24 have fractional translation)



   Cartesian axes

     site n.     atom                  positions (alat units)
         1           Si  tau(   1) = (   0.0000000   0.0000000   0.0000000  )
         2           Si  tau(   2) = (   0.2500000   0.2500000   0.2500000  )

     number of k points=    72 (tetrahedron method)
                       cart. coord. in units 2pi/alat
        k(    1) = (   0.0000000   0.0000000   0.0000000), wk =   0.0011574
        k(    2) = (  -0.0833333   0.0833333  -0.0833333), wk =   0.0092593
        k(    3) = (  -0.1666667   0.1666667  -0.1666667), wk =   0.0092593
        k(    4) = (  -0.2500000   0.2500000  -0.2500000), wk =   0.0092593
        k(    5) = (  -0.3333333   0.3333333  -0.3333333), wk =   0.0092593
        k(    6) = (  -0.4166667   0.4166667  -0.4166667), wk =   0.0092593
        k(    7) = (   0.5000000  -0.5000000   0.5000000), wk =   0.0046296
        k(    8) = (   0.0000000   0.1666667   0.0000000), wk =   0.0069444
        k(    9) = (  -0.0833333   0.2500000  -0.0833333), wk =   0.0277778
        k(   10) = (  -0.1666667   0.3333333  -0.1666667), wk =   0.0277778
        k(   11) = (  -0.2500000   0.4166667  -0.2500000), wk =   0.0277778
        k(   12) = (  -0.3333333   0.5000000  -0.3333333), wk =   0.0277778
        k(   13) = (   0.5833333  -0.4166667   0.5833333), wk =   0.0277778
        k(   14) = (   0.5000000  -0.3333333   0.5000000), wk =   0.0277778
        k(   15) = (   0.4166667  -0.2500000   0.4166667), wk =   0.0277778
        k(   16) = (   0.3333333  -0.1666667   0.3333333), wk =   0.0277778
        k(   17) = (   0.2500000  -0.0833333   0.2500000), wk =   0.0277778
        k(   18) = (   0.1666667  -0.0000000   0.1666667), wk =   0.0138889
        k(   19) = (   0.0000000   0.3333333   0.0000000), wk =   0.0069444
        k(   20) = (  -0.0833333   0.4166667  -0.0833333), wk =   0.0277778
        k(   21) = (  -0.1666667   0.5000000  -0.1666667), wk =   0.0277778
        k(   22) = (  -0.2500000   0.5833333  -0.2500000), wk =   0.0277778
        k(   23) = (   0.6666667  -0.3333333   0.6666667), wk =   0.0277778
        k(   24) = (   0.5833333  -0.2500000   0.5833333), wk =   0.0277778
        k(   25) = (   0.5000000  -0.1666667   0.5000000), wk =   0.0277778
        k(   26) = (   0.4166667  -0.0833333   0.4166667), wk =   0.0277778
        k(   27) = (   0.3333333   0.0000000   0.3333333), wk =   0.0138889
        k(   28) = (   0.0000000   0.5000000   0.0000000), wk =   0.0069444
        k(   29) = (  -0.0833333   0.5833333  -0.0833333), wk =   0.0277778
        k(   30) = (  -0.1666667   0.6666667  -0.1666667), wk =   0.0277778
        k(   31) = (   0.7500000  -0.2500000   0.7500000), wk =   0.0277778
        k(   32) = (   0.6666667  -0.1666667   0.6666667), wk =   0.0277778
        k(   33) = (   0.5833333  -0.0833333   0.5833333), wk =   0.0277778
        k(   34) = (   0.5000000   0.0000000   0.5000000), wk =   0.0138889
        k(   35) = (   0.0000000   0.6666667   0.0000000), wk =   0.0069444
        k(   36) = (  -0.0833333   0.7500000  -0.0833333), wk =   0.0277778
        k(   37) = (   0.8333333  -0.1666667   0.8333333), wk =   0.0277778
        k(   38) = (   0.7500000  -0.0833333   0.7500000), wk =   0.0277778
        k(   39) = (   0.6666667   0.0000000   0.6666667), wk =   0.0138889
        k(   40) = (   0.0000000   0.8333333   0.0000000), wk =   0.0069444
        k(   41) = (   0.9166667  -0.0833333   0.9166667), wk =   0.0277778
        k(   42) = (   0.8333333   0.0000000   0.8333333), wk =   0.0138889
        k(   43) = (   0.0000000  -1.0000000   0.0000000), wk =   0.0034722
        k(   44) = (  -0.1666667   0.3333333   0.0000000), wk =   0.0277778
        k(   45) = (  -0.2500000   0.4166667  -0.0833333), wk =   0.0555556
        k(   46) = (  -0.3333333   0.5000000  -0.1666667), wk =   0.0555556
        k(   47) = (   0.5833333  -0.4166667   0.7500000), wk =   0.0555556
        k(   48) = (   0.5000000  -0.3333333   0.6666667), wk =   0.0277778
        k(   49) = (  -0.1666667   0.5000000   0.0000000), wk =   0.0277778
        k(   50) = (  -0.2500000   0.5833333  -0.0833333), wk =   0.0555556
        k(   51) = (   0.6666667  -0.3333333   0.8333333), wk =   0.0555556
        k(   52) = (   0.5833333  -0.2500000   0.7500000), wk =   0.0555556
        k(   53) = (   0.5000000  -0.1666667   0.6666667), wk =   0.0555556
        k(   54) = (   0.4166667  -0.0833333   0.5833333), wk =   0.0555556
        k(   55) = (   0.3333333   0.0000000   0.5000000), wk =   0.0277778
        k(   56) = (  -0.1666667   0.6666667  -0.0000000), wk =   0.0277778
        k(   57) = (   0.7500000  -0.2500000   0.9166667), wk =   0.0555556
        k(   58) = (   0.6666667  -0.1666667   0.8333333), wk =   0.0555556
        k(   59) = (   0.5833333  -0.0833333   0.7500000), wk =   0.0555556
        k(   60) = (   0.5000000   0.0000000   0.6666667), wk =   0.0277778
        k(   61) = (   0.8333333  -0.1666667   1.0000000), wk =   0.0277778
        k(   62) = (   0.7500000  -0.0833333   0.9166667), wk =   0.0555556
        k(   63) = (   0.6666667   0.0000000   0.8333333), wk =   0.0277778
        k(   64) = (  -0.1666667  -1.0000000   0.0000000), wk =   0.0138889
        k(   65) = (   0.6666667  -0.3333333   1.0000000), wk =   0.0277778
        k(   66) = (   0.5833333  -0.2500000   0.9166667), wk =   0.0555556
        k(   67) = (   0.5000000  -0.1666667   0.8333333), wk =   0.0277778
        k(   68) = (   0.6666667  -0.1666667   1.0000000), wk =   0.0277778
        k(   69) = (   0.5833333  -0.0833333   0.9166667), wk =   0.0555556
        k(   70) = (   0.5000000   0.0000000   0.8333333), wk =   0.0277778
        k(   71) = (  -0.3333333  -1.0000000   0.0000000), wk =   0.0138889
        k(   72) = (  -0.5000000  -1.0000000   0.0000000), wk =   0.0069444

     Dense  grid:    12939 G-vectors     FFT dimensions: (  36,  36,  36)

     Largest allocated arrays     est. size (Mb)     dimensions
        Kohn-Sham Wavefunctions         0.25 Mb     (    1639,   10)
        NL pseudopotentials             0.55 Mb     (    1639,   22)
        Each V/rho on FFT grid          0.71 Mb     (   46656)
        Each G-vector array             0.10 Mb     (   12939)
        G-vector shells                 0.00 Mb     (     180)
     Largest temporary arrays     est. size (Mb)     dimensions
        Auxiliary wavefunctions         1.00 Mb     (    1639,   40)
        Each subspace H/S matrix        0.02 Mb     (      40,   40)
        Each <psi_i|beta_j> matrix      0.00 Mb     (      22,   10)

     The potential is recalculated from file :
     ./out/Si.save/charge-density.dat

     Starting wfc are   32 randomized atomic wfcs

     Band Structure Calculation
     Davidson diagonalization with overlap

     ethr =  8.89E-12,  avg # of iterations = 20.8

     Warning: ef = 12.944060 is above the highest band at k-point   1
              e  =  11.588035

     Warning: ef = 12.944060 is above the highest band at k-point   2
              e  =  11.040046

     Warning: ef = 12.944060 is above the highest band at k-point   3
              e  =  10.453262

     Warning: ef = 12.944060 is above the highest band at k-point   4
              e  =  10.624079

     Warning: ef = 12.944060 is above the highest band at k-point   5
              e  =  11.608874

     Warning: ef = 12.944060 is above the highest band at k-point   8
              e  =  10.432525

     Warning: ef = 12.944060 is above the highest band at k-point   9
              e  =  11.397072

     Warning: ef = 12.944060 is above the highest band at k-point  10
              e  =  11.411810

     Warning: ef = 12.944060 is above the highest band at k-point  11
              e  =  12.206732

     Warning: ef = 12.944060 is above the highest band at k-point  15
              e  =  11.962920

     Warning: ef = 12.944060 is above the highest band at k-point  16
              e  =  11.632613

     Warning: ef = 12.944060 is above the highest band at k-point  17
              e  =  11.654332

     Warning: ef = 12.944060 is above the highest band at k-point  18
              e  =  11.048532

     Warning: ef = 12.944060 is above the highest band at k-point  19
              e  =  12.012332

     Warning: ef = 12.944060 is above the highest band at k-point  20
              e  =  12.254041

     Warning: ef = 12.944060 is above the highest band at k-point  21
              e  =  12.881228

     Warning: ef = 12.944060 is above the highest band at k-point  24
              e  =  12.532785

     Warning: ef = 12.944060 is above the highest band at k-point  25
              e  =  12.507463

     Warning: ef = 12.944060 is above the highest band at k-point  28
              e  =  12.815157

     Warning: ef = 12.944060 is above the highest band at k-point  32
              e  =  12.532792

     Warning: ef = 12.944060 is above the highest band at k-point  33
              e  =  11.843967

     Warning: ef = 12.944060 is above the highest band at k-point  38
              e  =  12.878561

     Warning: ef = 12.944060 is above the highest band at k-point  39
              e  =  11.348022

     Warning: ef = 12.944060 is above the highest band at k-point  44
              e  =  12.080003

     Warning: ef = 12.944060 is above the highest band at k-point  45
              e  =  12.646486

     Warning: ef = 12.944060 is above the highest band at k-point  46
              e  =  12.480002

     Warning: ef = 12.944060 is above the highest band at k-point  53
              e  =  12.919151

     Warning: ef = 12.944060 is above the highest band at k-point  60
              e  =  11.974770

     total cpu time spent up to now is       34.3 secs

     End of band structure calculation

          k = 0.0000 0.0000 0.0000 (  1639 PWs)   bands (ev):

    -7.9131   4.7761   4.7761   4.7761   6.4539   6.4539   6.4539   7.8880
     9.6966  11.5880

          k =-0.0833 0.0833-0.0833 (  1612 PWs)   bands (ev):

    -7.8154   3.6947   4.5610   4.5610   6.5417   6.7452   6.7452   8.5097
    10.2810  11.0400

          k =-0.1667 0.1667-0.1667 (  1591 PWs)   bands (ev):

    -7.5241   1.9690   4.1747   4.1747   6.2400   7.2417   7.2417   9.6857
    10.4533  10.4533

          k =-0.2500 0.2500-0.2500 (  1618 PWs)   bands (ev):

    -7.0455   0.2670   3.8342   3.8342   5.8987   7.3925   7.3925  10.3401
    10.6241  10.6241

          k =-0.3333 0.3333-0.3333 (  1616 PWs)   bands (ev):

    -6.3979  -1.2846   3.5916   3.5916   5.6451   7.1592   7.1592   9.8774
    11.6089  11.6089

          k =-0.4167 0.4167-0.4167 (  1616 PWs)   bands (ev):

    -5.6496  -2.5837   3.4512   3.4512   5.4964   6.9020   6.9020   9.4918
    13.0501  13.0501

          k = 0.5000-0.5000 0.5000 (  1622 PWs)   bands (ev):

    -5.1794  -3.2388   3.4058   3.4058   5.4482   6.8019   6.8019   9.3555
    14.5013  14.5013

          k = 0.0000 0.1667 0.0000 (  1615 PWs)   bands (ev):

    -7.7828   4.0773   4.1270   4.1270   5.9574   7.2548   7.2548   8.4719
    10.3183  10.4325

          k =-0.0833 0.2500-0.0833 (  1599 PWs)   bands (ev):

    -7.5558   2.5589   3.6777   3.9967   5.9983   7.3761   7.8701   8.6897
    10.3414  11.3971

          k =-0.1667 0.3333-0.1667 (  1610 PWs)   bands (ev):

    -7.1388   0.8665   3.3331   3.5977   6.2065   7.2531   8.1655   8.5995
    11.3943  11.4118

          k =-0.2500 0.4167-0.2500 (  1606 PWs)   bands (ev):

    -6.5446  -0.7284   3.1270   3.1998   6.0707   7.0409   7.9496   9.2800
    11.0936  12.2067

          k =-0.3333 0.5000-0.3333 (  1616 PWs)   bands (ev):

    -5.8147  -2.1217   2.8675   3.0652   5.9062   6.8218   7.5620  10.0300
    11.2381  13.5398

          k = 0.5833-0.4167 0.5833 (  1615 PWs)   bands (ev):

    -5.1614  -3.0797   2.6215   3.1409   5.8700   6.7263   7.2522  10.0857
    12.5286  14.4238

          k = 0.5000-0.3333 0.5000 (  1616 PWs)   bands (ev):

    -5.3357  -2.8437   2.4818   3.3387   5.9703   6.7985   7.1060  10.1595
    12.7074  13.0693

          k = 0.4167-0.2500 0.4167 (  1611 PWs)   bands (ev):

    -6.0681  -1.6848   2.4687   3.6364   6.1590   7.0676   7.1305  10.2839
    11.1675  11.9629

          k = 0.3333-0.1667 0.3333 (  1605 PWs)   bands (ev):

    -6.7614  -0.2116   2.5994   4.0058   6.4079   7.2228   7.4531   9.8917
    10.0291  11.6326

          k = 0.2500-0.0833 0.2500 (  1600 PWs)   bands (ev):

    -7.2988   1.4221   2.8899   4.3991   6.7108   7.0758   7.5325   9.3857
     9.6510  11.6543

          k = 0.1667-0.0000 0.1667 (  1592 PWs)   bands (ev):

    -7.6531   2.9724   3.4651   4.6778   6.7103   6.8969   7.0541   9.1430
    10.1305  11.0485

          k = 0.0000 0.3333 0.0000 (  1607 PWs)   bands (ev):

    -7.3933   2.7468   3.1863   3.1863   5.0850   7.5946   8.6328   8.6328
    10.7338  12.0123

          k =-0.0833 0.4167-0.0833 (  1616 PWs)   bands (ev):

    -7.0395   1.4400   2.8089   2.8193   5.1517   6.9841   8.8383   9.1756
    11.9245  12.2540

          k =-0.1667 0.5000-0.1667 (  1611 PWs)   bands (ev):

    -6.5032  -0.0893   2.2892   2.5807   5.2958   7.2896   8.6245   9.1371
    12.6351  12.8812

          k =-0.2500 0.5833-0.2500 (  1610 PWs)   bands (ev):

    -5.8112  -1.5139   1.7890   2.5124   5.1962   8.0704   8.7360   8.7461
    12.2122  14.1187

          k = 0.6667-0.3333 0.6667 (  1607 PWs)   bands (ev):

    -5.0795  -2.6499   1.3856   2.6037   5.2139   8.0063   8.3438  10.0667
    11.9670  14.3672

          k = 0.5833-0.2500 0.5833 (  1602 PWs)   bands (ev):

    -4.9105  -2.8729   1.1120   2.8459   5.4337   7.8924   8.0583  11.4059
    11.8923  12.5328

          k = 0.5000-0.1667 0.5000 (  1610 PWs)   bands (ev):

    -5.5666  -1.9186   0.9935   3.2197   5.8469   7.8690   7.9148  10.8402
    10.9100  12.5075

          k = 0.4167-0.0833 0.4167 (  1613 PWs)   bands (ev):

    -6.2934  -0.5662   1.0628   3.6856   6.4039   7.8272   7.9227   9.6695
     9.6792  12.9866

          k = 0.3333 0.0000 0.3333 (  1604 PWs)   bands (ev):

    -6.8844   0.7669   1.5145   4.1530   6.9577   7.4775   7.7249   9.0209
     9.2578  13.0521

          k = 0.0000 0.5000 0.0000 (  1612 PWs)   bands (ev):

    -6.7489   1.2508   2.3902   2.3902   4.3120   5.9363  10.1126  10.1126
    12.4812  12.8152

          k =-0.0833 0.5833-0.0833 (  1617 PWs)   bands (ev):

    -6.2732   0.2373   1.7440   2.1206   4.4243   5.6297  10.3477  10.4796
    13.4177  13.7867

          k =-0.1667 0.6667-0.1667 (  1620 PWs)   bands (ev):

    -5.6299  -0.9724   0.9515   2.0150   4.4641   6.4637  10.1356  10.2114
    14.0969  14.6318

          k = 0.7500-0.2500 0.7500 (  1617 PWs)   bands (ev):

    -4.8848  -2.1117   0.3254   2.0769   4.4903   7.8452   9.7870   9.9179
    13.5402  14.4406

          k = 0.6667-0.1667 0.6667 (  1607 PWs)   bands (ev):

    -4.4259  -2.6947  -0.1029   2.3018   4.7065   9.0570   9.4269  10.1606
    12.4979  12.5328

          k = 0.5833-0.0833 0.5833 (  1611 PWs)   bands (ev):

    -4.9199  -2.0372  -0.3080   2.6760   5.1265   9.1672   9.2197  10.8573
    10.8967  11.8440

          k = 0.5000 0.0000 0.5000 (  1604 PWs)   bands (ev):

    -5.6591  -1.0331  -0.0926   3.1661   5.7254   8.7480   8.9540   9.7583
     9.8114  13.3930

          k = 0.0000 0.6667 0.0000 (  1624 PWs)   bands (ev):

    -5.8580  -0.3290   1.8038   1.8038   3.7645   4.6889  11.6126  11.6126
    13.7672  14.2427

          k =-0.0833 0.7500-0.0833 (  1618 PWs)   bands (ev):

    -5.2692  -1.1742   1.0479   1.6506   3.8995   4.7813  11.8144  11.8609
    14.8147  15.5156

          k = 0.8333-0.1667 0.8333 (  1619 PWs)   bands (ev):

    -4.5456  -2.0165   0.0288   1.6676   3.9504   6.0079  11.4555  11.6402
    14.5260  14.6500

          k = 0.7500-0.0833 0.7500 (  1620 PWs)   bands (ev):

    -3.9152  -2.6418  -0.7232   1.8532   4.1418   7.6088  11.0481  11.3805
    12.7109  12.8786

          k = 0.6667 0.0000 0.6667 (  1612 PWs)   bands (ev):

    -4.2098  -2.3445  -0.9775   2.1978   4.5379   9.2587  10.5013  11.1846
    11.1985  11.3480

          k = 0.0000 0.8333 0.0000 (  1628 PWs)   bands (ev):

    -4.7352  -1.9130   1.4468   1.4468   3.4901   3.9036  13.1406  13.1406
    14.9877  15.7513

          k = 0.9167-0.0833 0.9167 (  1622 PWs)   bands (ev):

    -4.0502  -2.6559   0.7260   1.4131   3.6228   4.3879  13.2420  13.3936
    14.9418  14.9601

          k = 0.8333 0.0000 0.8333 (  1614 PWs)   bands (ev):

    -3.4405  -3.1394  -0.2597   1.5507   3.7803   5.8609  12.6692  13.1247
    13.2022  13.2247

          k = 0.0000-1.0000 0.0000 (  1604 PWs)   bands (ev):

    -3.4057  -3.4057   1.3270   1.3270   3.5230   3.5230  14.4965  14.4965
    15.0725  15.0725

          k =-0.1667 0.3333 0.0000 (  1603 PWs)   bands (ev):

    -7.2655   1.8280   2.5006   3.9307   5.9820   7.7564   8.0859   8.2953
    10.6778  12.0800

          k =-0.2500 0.4167-0.0833 (  1607 PWs)   bands (ev):

    -6.7886   0.3956   1.9551   3.5730   6.2622   7.5454   7.9991   8.6342
    10.8969  12.6465

          k =-0.3333 0.5000-0.1667 (  1604 PWs)   bands (ev):

    -6.1432  -1.0999   1.7331   3.1457   6.2389   7.0707   8.5342   8.9689
    11.6242  12.4800

          k = 0.5833-0.4167 0.7500 (  1612 PWs)   bands (ev):

    -5.3963  -2.3783   1.6479   2.8190   6.2145   6.6582   8.3885  10.2780
    11.6845  13.3730

          k = 0.5000-0.3333 0.6667 (  1602 PWs)   bands (ev):

    -4.9244  -3.0297   1.6321   2.6939   6.2939   6.4189   8.3320  11.0207
    11.9209  13.0460

          k =-0.1667 0.5000 0.0000 (  1617 PWs)   bands (ev):

    -6.6250   0.7050   1.6928   2.7275   5.2427   6.4636   8.9650   9.9077
    12.0664  13.6966

          k =-0.2500 0.5833-0.0833 (  1611 PWs)   bands (ev):

    -6.0346  -0.5129   1.1182   2.3042   5.4818   6.8855   8.5811  10.1909
    12.6956  13.7579

          k = 0.6667-0.3333 0.8333 (  1617 PWs)   bands (ev):

    -5.3084  -1.7878   0.7895   2.0073   5.4908   7.7627   8.5235  10.0918
    13.0701  13.9104

          k = 0.5833-0.2500 0.7500 (  1607 PWs)   bands (ev):

    -4.6549  -2.7050   0.5238   1.9840   5.6302   7.5829   9.6796  10.1817
    11.9482  13.5869

          k = 0.5000-0.1667 0.6667 (  1605 PWs)   bands (ev):

    -4.8391  -2.4583   0.3461   2.2147   5.9485   7.3576   9.7690  10.3000
    11.7532  12.9192

          k = 0.4167-0.0833 0.5833 (  1610 PWs)   bands (ev):

    -5.5705  -1.3543   0.3313   2.6339   6.4287   7.2345   8.8319   9.7312
    11.6882  13.2422

          k = 0.3333 0.0000 0.5000 (  1606 PWs)   bands (ev):

    -6.2572  -0.1908   0.7028   3.1548   6.9241   7.0222   7.9527   9.4154
    10.8356  13.8477

          k =-0.1667 0.6667-0.0000 (  1626 PWs)   bands (ev):

    -5.7416  -0.5258   1.1136   1.6718   4.7036   5.3658  10.1741  11.5312
    13.6586  15.1422

          k = 0.7500-0.2500 0.9167 (  1621 PWs)   bands (ev):

    -5.0555  -1.4537   0.3452   1.3631   4.9119   6.2540   9.7196  11.8083
    14.0328  14.6635

          k = 0.6667-0.1667 0.8333 (  1616 PWs)   bands (ev):

    -4.3269  -2.3459  -0.2902   1.3822   5.0380   7.7192   9.3415  11.6727
    12.2472  14.7494

          k = 0.5833-0.0833 0.7500 (  1614 PWs)   bands (ev):

    -4.1950  -2.4754  -0.6637   1.6349   5.3402   8.6702   9.7057  10.5431
    11.5188  13.2443

          k = 0.5000 0.0000 0.6667 (  1621 PWs)   bands (ev):

    -4.8634  -1.7502  -0.6001   2.0725   5.8187   8.3795   9.0433  10.7694
    11.9252  11.9748

          k = 0.8333-0.1667 1.0000 (  1617 PWs)   bands (ev):

    -4.6335  -1.9208   0.7901   1.0167   4.4134   4.7027  11.4899  13.1448
    14.5161  15.2200

          k = 0.7500-0.0833 0.9167 (  1620 PWs)   bands (ev):

    -3.8953  -2.6104  -0.1384   0.9649   4.6223   5.9547  11.0458  12.5586
    13.4130  15.1064

          k = 0.6667 0.0000 0.8333 (  1620 PWs)   bands (ev):

    -3.6044  -2.8049  -0.8192   1.2055   4.8890   7.6185  10.5896  10.8099
    12.9700  13.6581

          k =-0.1667-1.0000 0.0000 (  1622 PWs)   bands (ev):

    -3.3361  -3.3361   0.7454   0.7454   4.4021   4.4021  12.9493  12.9493
    14.8190  14.8190

          k = 0.6667-0.3333 1.0000 (  1610 PWs)   bands (ev):

    -5.4001  -1.0784   0.1433   1.7221   6.4181   6.7881   8.1296  11.2702
    12.8592  13.6975

          k = 0.5833-0.2500 0.9167 (  1611 PWs)   bands (ev):

    -4.6609  -1.9939  -0.2109   1.2554   6.5892   7.3302   8.3980  11.5297
    12.0312  13.9056

          k = 0.5000-0.1667 0.8333 (  1610 PWs)   bands (ev):

    -4.1793  -2.5826  -0.2707   1.0793   6.6226   7.2487   9.6505  10.3380
    11.7430  14.8406

          k = 0.6667-0.1667 1.0000 (  1618 PWs)   bands (ev):

    -4.3471  -2.0404  -0.1205   0.5710   6.1291   6.3087   9.2160  12.1458
    13.1324  14.8764

          k = 0.5833-0.0833 0.9167 (  1615 PWs)   bands (ev):

    -3.6909  -2.6197  -0.5748   0.3844   6.3861   7.6999   8.9069  10.2671
    13.4731  15.3600

          k = 0.5000 0.0000 0.8333 (  1612 PWs)   bands (ev):

    -3.9492  -2.3830  -0.7322   0.6752   6.6981   8.0420   8.6440  10.0029
    13.0635  14.2591

          k =-0.3333-1.0000 0.0000 (  1618 PWs)   bands (ev):

    -3.1751  -3.1751  -0.0205  -0.0205   6.0868   6.0868  10.5887  10.5887
    14.8664  14.8664

          k =-0.5000-1.0000 0.0000 (  1628 PWs)   bands (ev):

    -3.0790  -3.0790  -0.3378  -0.3378   7.6308   7.6308   8.8201   8.8201
    14.8978  14.8978

     the Fermi energy is    12.9441 ev

     Writing output data file Si.save

     init_run     :      0.16s CPU      0.18s WALL (       1 calls)
     electrons    :     33.06s CPU     33.71s WALL (       1 calls)

     Called by init_run:
     wfcinit      :      0.00s CPU      0.00s WALL (       1 calls)
     potinit      :      0.04s CPU      0.05s WALL (       1 calls)

     Called by electrons:
     c_bands      :     32.97s CPU     33.61s WALL (       1 calls)
     v_of_rho     :      0.04s CPU      0.04s WALL (       1 calls)

     Called by c_bands:
     init_us_2    :      0.10s CPU      0.11s WALL (      72 calls)
     cegterg      :     26.28s CPU     26.79s WALL (     103 calls)

     Called by *egterg:
     h_psi        :     27.68s CPU     28.26s WALL (    1670 calls)
     g_psi        :      0.07s CPU      0.07s WALL (    1495 calls)
     cdiaghg      :      0.59s CPU      0.60s WALL (    1567 calls)

     Called by h_psi:
     add_vuspsi   :      0.75s CPU      0.77s WALL (    1670 calls)

     General routines
     calbec       :      0.87s CPU      0.89s WALL (    1670 calls)
     fft          :      0.02s CPU      0.02s WALL (      10 calls)
     fftw         :     24.71s CPU     25.23s WALL (   23274 calls)
     davcio       :      0.00s CPU      0.01s WALL (      72 calls)

     Parallel routines
     fft_scatter  :      0.61s CPU      0.61s WALL (   23284 calls)

     PWSCF        :    34.90s CPU        35.63s WALL


   This run was terminated on:  17:49: 0  13Feb2023            

=------------------------------------------------------------------------------=
   JOB DONE.
=------------------------------------------------------------------------------=
