
     Program PWSCF v.5.1 starts on 13Feb2023 at 17:48: 0 

     This program is part of the open-source Quantum ESPRESSO suite
     for quantum simulation of materials; please cite
         "P. Giannozzi et al., J. Phys.:Condens. Matter 21 395502 (2009);
          URL http://www.quantum-espresso.org", 
     in publications or presentations arising from this work. More details at
     http://www.quantum-espresso.org/quote

     Parallel version (MPI), running on     1 processors
     Waiting for input...
     Reading input from standard input

     Current dimensions of program PWSCF are:
     Max number of different atomic species (ntypx) = 10
     Max number of k-points (npk) =  40000
     Max angular momentum in pseudopotentials (lmaxx) =  3
               file Si.pbe-mt_fhi.UPF: wavefunction(s)  4f renormalized

     Subspace diagonalization in iterative solution of the eigenvalue problem:
     a serial algorithm will be used


     G-vector sticks info
     --------------------
     sticks:   dense  smooth     PW     G-vecs:    dense   smooth      PW
     Sum         733     733    211                12939    12939    2109



     bravais-lattice index     =            2
     lattice parameter (alat)  =      10.2623  a.u.
     unit-cell volume          =     270.1967 (a.u.)^3
     number of atoms/cell      =            2
     number of atomic types    =            1
     number of electrons       =        18.00
     number of Kohn-Sham states=           10
     kinetic-energy cutoff     =      50.0000  Ry
     charge density cutoff     =     200.0000  Ry
     convergence threshold     =      1.6E-09
     mixing beta               =       0.3000
     number of iterations used =            8  plain     mixing
     Exchange-correlation      = PBE ( 1  4  3  4 0)

     celldm(1)=  10.262347  celldm(2)=   0.000000  celldm(3)=   0.000000
     celldm(4)=   0.000000  celldm(5)=   0.000000  celldm(6)=   0.000000

     crystal axes: (cart. coord. in units of alat)
               a(1) = (  -0.500000   0.000000   0.500000 )  
               a(2) = (   0.000000   0.500000   0.500000 )  
               a(3) = (  -0.500000   0.500000   0.000000 )  

     reciprocal axes: (cart. coord. in units 2 pi/alat)
               b(1) = ( -1.000000 -1.000000  1.000000 )  
               b(2) = (  1.000000  1.000000  1.000000 )  
               b(3) = ( -1.000000  1.000000 -1.000000 )  


     PseudoPot. # 1 for Si read from file:
     /home/acedemo/psudo/Si.pbe-mt_fhi.UPF
     MD5 check sum: 259057c2adf9952f9ced37ae3d9e311d
     Pseudo is Norm-conserving, Zval =  4.0
     Generated using FHI98PP, converted with fhi2upf.x v.5.0.2
     Using radial grid of  495 points,  3 beta functions with: 
                l(1) =   0
                l(2) =   1
                l(3) =   3

     atomic species   valence    mass     pseudopotential
        Si             4.00    28.08550     Si( 1.00)

     48 Sym. Ops., with inversion, found (24 have fractional translation)



   Cartesian axes

     site n.     atom                  positions (alat units)
         1           Si  tau(   1) = (   0.0000000   0.0000000   0.0000000  )
         2           Si  tau(   2) = (   0.2500000   0.2500000   0.2500000  )

     number of k points=    10  Marzari-Vanderbilt smearing, width (Ry)=  0.0500
                       cart. coord. in units 2pi/alat
        k(    1) = (   0.0000000   0.0000000   0.0000000), wk =   0.0160000
        k(    2) = (  -0.2000000   0.2000000  -0.2000000), wk =   0.1280000
        k(    3) = (  -0.4000000   0.4000000  -0.4000000), wk =   0.1280000
        k(    4) = (   0.0000000   0.4000000   0.0000000), wk =   0.0960000
        k(    5) = (  -0.2000000   0.6000000  -0.2000000), wk =   0.3840000
        k(    6) = (   0.6000000  -0.2000000   0.6000000), wk =   0.3840000
        k(    7) = (   0.4000000   0.0000000   0.4000000), wk =   0.1920000
        k(    8) = (   0.0000000   0.8000000   0.0000000), wk =   0.0960000
        k(    9) = (   0.8000000   0.0000000   0.8000000), wk =   0.1920000
        k(   10) = (   0.6000000  -0.2000000   1.0000000), wk =   0.3840000

     Dense  grid:    12939 G-vectors     FFT dimensions: (  36,  36,  36)

     Largest allocated arrays     est. size (Mb)     dimensions
        Kohn-Sham Wavefunctions         0.25 Mb     (    1639,   10)
        NL pseudopotentials             0.55 Mb     (    1639,   22)
        Each V/rho on FFT grid          0.71 Mb     (   46656)
        Each G-vector array             0.10 Mb     (   12939)
        G-vector shells                 0.00 Mb     (     180)
     Largest temporary arrays     est. size (Mb)     dimensions
        Auxiliary wavefunctions         1.00 Mb     (    1639,   40)
        Each subspace H/S matrix        0.02 Mb     (      40,   40)
        Each <psi_i|beta_j> matrix      0.00 Mb     (      22,   10)
        Arrays for rho mixing           5.70 Mb     (   46656,    8)

     Initial potential from superposition of free atoms

     starting charge    7.99859, renormalised to   18.00000
     Starting wfc are   32 randomized atomic wfcs

     total cpu time spent up to now is        1.4 secs

     per-process dynamical memory:    15.9 Mb

     Self-consistent Calculation

     iteration #  1     ecut=    50.00 Ry     beta=0.30
     Davidson diagonalization with overlap
     ethr =  1.00E-02,  avg # of iterations =  3.6

     total cpu time spent up to now is        2.8 secs

     total energy              =      -8.38357174 Ry
     Harris-Foulkes estimate   =      -9.43903089 Ry
     estimated scf accuracy    <       2.75611553 Ry

     iteration #  2     ecut=    50.00 Ry     beta=0.30
     Davidson diagonalization with overlap
     ethr =  1.00E-02,  avg # of iterations =  2.1

     total cpu time spent up to now is        4.0 secs

     total energy              =      -8.31553979 Ry
     Harris-Foulkes estimate   =      -8.57087115 Ry
     estimated scf accuracy    <       0.43757718 Ry

     iteration #  3     ecut=    50.00 Ry     beta=0.30
     Davidson diagonalization with overlap
     ethr =  2.43E-03,  avg # of iterations =  2.4

     total cpu time spent up to now is        5.5 secs

     total energy              =      -8.42983457 Ry
     Harris-Foulkes estimate   =      -8.43791726 Ry
     estimated scf accuracy    <       0.01177027 Ry

     iteration #  4     ecut=    50.00 Ry     beta=0.30
     Davidson diagonalization with overlap
     ethr =  6.54E-05,  avg # of iterations =  3.2

     total cpu time spent up to now is        6.7 secs

     total energy              =      -8.43382282 Ry
     Harris-Foulkes estimate   =      -8.43603465 Ry
     estimated scf accuracy    <       0.00451665 Ry

     iteration #  5     ecut=    50.00 Ry     beta=0.30
     Davidson diagonalization with overlap
     ethr =  2.51E-05,  avg # of iterations =  2.3

     total cpu time spent up to now is        7.6 secs

     total energy              =      -8.43462735 Ry
     Harris-Foulkes estimate   =      -8.43463216 Ry
     estimated scf accuracy    <       0.00000794 Ry

     iteration #  6     ecut=    50.00 Ry     beta=0.30
     Davidson diagonalization with overlap
     ethr =  4.41E-08,  avg # of iterations =  3.8

     total cpu time spent up to now is        8.7 secs

     total energy              =      -8.43463442 Ry
     Harris-Foulkes estimate   =      -8.43464627 Ry
     estimated scf accuracy    <       0.00002512 Ry

     iteration #  7     ecut=    50.00 Ry     beta=0.30
     Davidson diagonalization with overlap
     ethr =  4.41E-08,  avg # of iterations =  2.8

     total cpu time spent up to now is        9.8 secs

     total energy              =      -8.43463882 Ry
     Harris-Foulkes estimate   =      -8.43463873 Ry
     estimated scf accuracy    <       0.00000014 Ry

     iteration #  8     ecut=    50.00 Ry     beta=0.30
     Davidson diagonalization with overlap
     ethr =  7.98E-10,  avg # of iterations =  3.5

     total cpu time spent up to now is       11.1 secs

     total energy              =      -8.43463873 Ry
     Harris-Foulkes estimate   =      -8.43463919 Ry
     estimated scf accuracy    <       0.00000094 Ry

     iteration #  9     ecut=    50.00 Ry     beta=0.30
     Davidson diagonalization with overlap
     ethr =  7.98E-10,  avg # of iterations =  3.0

     total cpu time spent up to now is       12.7 secs

     total energy              =      -8.43463886 Ry
     Harris-Foulkes estimate   =      -8.43463887 Ry
     estimated scf accuracy    <       0.00000001 Ry

     iteration # 10     ecut=    50.00 Ry     beta=0.30
     Davidson diagonalization with overlap
     ethr =  6.30E-11,  avg # of iterations =  2.5

     total cpu time spent up to now is       13.8 secs

     End of self-consistent calculation

          k = 0.0000 0.0000 0.0000 (  1639 PWs)   bands (ev):

    -7.9131   4.7761   4.7761   4.7761   6.4539   6.4539   6.4539   7.8880
     9.6966  11.5880

          k =-0.2000 0.2000-0.2000 (  1606 PWs)   bands (ev):

    -7.3545   1.2756   4.0282   4.0282   6.0965   7.3646   7.3646  10.1114
    10.4081  10.4081

          k =-0.4000 0.4000-0.4000 (  1616 PWs)   bands (ev):

    -5.7988  -2.3534   3.4714   3.4714   5.5179   6.9439   6.9439   9.5507
    12.7376  12.7376

          k = 0.0000 0.4000 0.0000 (  1607 PWs)   bands (ev):

    -7.1657   2.1620   2.8450   2.8450   4.7535   6.8990   9.2199   9.2199
    11.4019  12.3738

          k =-0.2000 0.6000-0.2000 (  1619 PWs)   bands (ev):

    -5.9055  -0.9952   1.5028   2.3037   4.8986   7.3480   9.1421   9.3920
    13.0213  14.0702

          k = 0.6000-0.2000 0.6000 (  1596 PWs)   bands (ev):

    -4.7944  -2.7241   0.5457   2.6883   5.1987   8.4457   8.5199  11.2941
    11.8801  12.1602

          k = 0.4000 0.0000 0.4000 (  1610 PWs)   bands (ev):

    -6.4433  -0.0087   0.8112   3.7886   6.5265   7.9260   8.1704   9.1927
     9.3131  13.5938

          k = 0.0000 0.8000 0.0000 (  1624 PWs)   bands (ev):

    -4.9773  -1.6007   1.4993   1.4993   3.5215   4.0262  12.8315  12.8315
    14.7223  15.4745

          k = 0.8000 0.0000 0.8000 (  1622 PWs)   bands (ev):

    -3.4983  -3.0225  -0.5650   1.6479   3.8928   6.5340  12.2110  12.6671
    12.7867  12.8251

          k = 0.6000-0.2000 1.0000 (  1616 PWs)   bands (ev):

    -4.4066  -1.9838  -0.3983   0.7679   6.9361   6.9757   8.2534  11.5487
    12.7546  14.2386

     the Fermi energy is    12.8923 ev

!    total energy              =      -8.43463887 Ry
     Harris-Foulkes estimate   =      -8.43463887 Ry
     estimated scf accuracy    <          5.0E-12 Ry

     The total energy is the sum of the following terms:

     one-electron contribution =      19.75318412 Ry
     hartree contribution      =       1.58173737 Ry
     xc contribution           =     -12.96809067 Ry
     ewald contribution        =     -16.79708774 Ry
     smearing contrib. (-TS)   =      -0.00438195 Ry

     convergence has been achieved in  10 iterations

     Forces acting on atoms (Ry/au):

     atom    1 type  1   force =     0.00000000    0.00000000    0.00000000
     atom    2 type  1   force =     0.00000000    0.00000000    0.00000000

     Total force =     0.000000     Total SCF correction =     0.000000


     entering subroutine stress ...

          total   stress  (Ry/bohr**3)                   (kbar)     P= 4842.03
   0.03291547  -0.00000000  -0.00000000       4842.03     -0.00     -0.00
  -0.00000000   0.03291547   0.00000000         -0.00   4842.03      0.00
  -0.00000000   0.00000000   0.03291547         -0.00      0.00   4842.03


     Writing output data file Si.save

     init_run     :      1.25s CPU      1.33s WALL (       1 calls)
     electrons    :     11.72s CPU     12.48s WALL (       1 calls)
     forces       :      0.05s CPU      0.06s WALL (       1 calls)
     stress       :      0.55s CPU      0.57s WALL (       1 calls)

     Called by init_run:
     wfcinit      :      1.08s CPU      1.13s WALL (       1 calls)
     potinit      :      0.05s CPU      0.05s WALL (       1 calls)

     Called by electrons:
     c_bands      :      9.69s CPU     10.24s WALL (      10 calls)
     sum_band     :      1.58s CPU      1.73s WALL (      10 calls)
     v_of_rho     :      0.45s CPU      0.49s WALL (      11 calls)
     mix_rho      :      0.03s CPU      0.05s WALL (      10 calls)

     Called by c_bands:
     init_us_2    :      0.38s CPU      0.39s WALL (     230 calls)
     cegterg      :      9.38s CPU      9.92s WALL (     100 calls)

     Called by *egterg:
     h_psi        :      9.26s CPU      9.77s WALL (     402 calls)
     g_psi        :      0.02s CPU      0.02s WALL (     292 calls)
     cdiaghg      :      0.13s CPU      0.14s WALL (     392 calls)

     Called by h_psi:
     add_vuspsi   :      0.26s CPU      0.28s WALL (     402 calls)

     General routines
     calbec       :      0.31s CPU      0.32s WALL (     422 calls)
     fft          :      0.18s CPU      0.18s WALL (     128 calls)
     fftw         :      9.34s CPU      9.92s WALL (    7754 calls)
     davcio       :      0.00s CPU      0.00s WALL (      10 calls)

     Parallel routines
     fft_scatter  :      0.25s CPU      0.26s WALL (    7882 calls)

     PWSCF        :    13.68s CPU        14.54s WALL


   This run was terminated on:  17:48:15  13Feb2023            

=------------------------------------------------------------------------------=
   JOB DONE.
=------------------------------------------------------------------------------=
