
     Program PWSCF v.5.1 starts on 14Feb2023 at 18:53:40 

     This program is part of the open-source Quantum ESPRESSO suite
     for quantum simulation of materials; please cite
         "P. Giannozzi et al., J. Phys.:Condens. Matter 21 395502 (2009);
          URL http://www.quantum-espresso.org", 
     in publications or presentations arising from this work. More details at
     http://www.quantum-espresso.org/quote

     Parallel version (MPI), running on     1 processors
     Waiting for input...
     Reading input from standard input

     Current dimensions of program PWSCF are:
     Max number of different atomic species (ntypx) = 10
     Max number of k-points (npk) =  40000
     Max angular momentum in pseudopotentials (lmaxx) =  3
               file Si.pbe-mt_fhi.UPF: wavefunction(s)  4f renormalized

     Subspace diagonalization in iterative solution of the eigenvalue problem:
     a serial algorithm will be used


     G-vector sticks info
     --------------------
     sticks:   dense  smooth     PW     G-vecs:    dense   smooth      PW
     Sum         733     733    211                12939    12939    2109



     bravais-lattice index     =            2
     lattice parameter (alat)  =      10.2623  a.u.
     unit-cell volume          =     270.1967 (a.u.)^3
     number of atoms/cell      =            2
     number of atomic types    =            1
     number of electrons       =        18.00
     number of Kohn-Sham states=           10
     kinetic-energy cutoff     =      50.0000  Ry
     charge density cutoff     =     200.0000  Ry
     convergence threshold     =      1.6E-09
     mixing beta               =       0.3000
     number of iterations used =            8  plain     mixing
     Exchange-correlation      = PBE ( 1  4  3  4 0)

     celldm(1)=  10.262347  celldm(2)=   0.000000  celldm(3)=   0.000000
     celldm(4)=   0.000000  celldm(5)=   0.000000  celldm(6)=   0.000000

     crystal axes: (cart. coord. in units of alat)
               a(1) = (  -0.500000   0.000000   0.500000 )  
               a(2) = (   0.000000   0.500000   0.500000 )  
               a(3) = (  -0.500000   0.500000   0.000000 )  

     reciprocal axes: (cart. coord. in units 2 pi/alat)
               b(1) = ( -1.000000 -1.000000  1.000000 )  
               b(2) = (  1.000000  1.000000  1.000000 )  
               b(3) = ( -1.000000  1.000000 -1.000000 )  


     PseudoPot. # 1 for Si read from file:
     /home/acedemo/psudo/Si.pbe-mt_fhi.UPF
     MD5 check sum: 259057c2adf9952f9ced37ae3d9e311d
     Pseudo is Norm-conserving, Zval =  4.0
     Generated using FHI98PP, converted with fhi2upf.x v.5.0.2
     Using radial grid of  495 points,  3 beta functions with: 
                l(1) =   0
                l(2) =   1
                l(3) =   3

     atomic species   valence    mass     pseudopotential
        Si             4.00    28.08550     Si( 1.00)

     48 Sym. Ops., with inversion, found (24 have fractional translation)



   Cartesian axes

     site n.     atom                  positions (alat units)
         1           Si  tau(   1) = (   0.0000000   0.0000000   0.0000000  )
         2           Si  tau(   2) = (   0.2500000   0.2500000   0.2500000  )

     number of k points=    10
                       cart. coord. in units 2pi/alat
        k(    1) = (   0.0000000   0.0000000   0.0000000), wk =   0.0160000
        k(    2) = (  -0.2000000   0.2000000  -0.2000000), wk =   0.1280000
        k(    3) = (  -0.4000000   0.4000000  -0.4000000), wk =   0.1280000
        k(    4) = (   0.0000000   0.4000000   0.0000000), wk =   0.0960000
        k(    5) = (  -0.2000000   0.6000000  -0.2000000), wk =   0.3840000
        k(    6) = (   0.6000000  -0.2000000   0.6000000), wk =   0.3840000
        k(    7) = (   0.4000000   0.0000000   0.4000000), wk =   0.1920000
        k(    8) = (   0.0000000   0.8000000   0.0000000), wk =   0.0960000
        k(    9) = (   0.8000000   0.0000000   0.8000000), wk =   0.1920000
        k(   10) = (   0.6000000  -0.2000000   1.0000000), wk =   0.3840000

     Dense  grid:    12939 G-vectors     FFT dimensions: (  36,  36,  36)

     Largest allocated arrays     est. size (Mb)     dimensions
        Kohn-Sham Wavefunctions         0.25 Mb     (    1639,   10)
        NL pseudopotentials             0.55 Mb     (    1639,   22)
        Each V/rho on FFT grid          0.71 Mb     (   46656)
        Each G-vector array             0.10 Mb     (   12939)
        G-vector shells                 0.00 Mb     (     180)
     Largest temporary arrays     est. size (Mb)     dimensions
        Auxiliary wavefunctions         1.00 Mb     (    1639,   40)
        Each subspace H/S matrix        0.02 Mb     (      40,   40)
        Each <psi_i|beta_j> matrix      0.00 Mb     (      22,   10)
        Arrays for rho mixing           5.70 Mb     (   46656,    8)

     Initial potential from superposition of free atoms

     starting charge    7.99859, renormalised to   18.00000
     Starting wfc are   32 randomized atomic wfcs

     total cpu time spent up to now is        1.1 secs

     per-process dynamical memory:    15.9 Mb

     Self-consistent Calculation

     iteration #  1     ecut=    50.00 Ry     beta=0.30
     Davidson diagonalization with overlap
     ethr =  1.00E-02,  avg # of iterations =  3.6

     total cpu time spent up to now is        2.2 secs

     total energy              =      -8.32749043 Ry
     Harris-Foulkes estimate   =      -9.31998466 Ry
     estimated scf accuracy    <       2.59640761 Ry

     iteration #  2     ecut=    50.00 Ry     beta=0.30
     Davidson diagonalization with overlap
     ethr =  1.00E-02,  avg # of iterations =  2.1

     total cpu time spent up to now is        2.9 secs

     total energy              =      -8.25616223 Ry
     Harris-Foulkes estimate   =      -8.50452117 Ry
     estimated scf accuracy    <       0.42419506 Ry

     iteration #  3     ecut=    50.00 Ry     beta=0.30
     Davidson diagonalization with overlap
     ethr =  2.36E-03,  avg # of iterations =  2.4

     total cpu time spent up to now is        3.9 secs

     total energy              =      -8.36158876 Ry
     Harris-Foulkes estimate   =      -8.36340304 Ry
     estimated scf accuracy    <       0.00345733 Ry

     iteration #  4     ecut=    50.00 Ry     beta=0.30
     Davidson diagonalization with overlap
     ethr =  1.92E-05,  avg # of iterations =  3.4

     total cpu time spent up to now is        4.9 secs

     total energy              =      -8.36299512 Ry
     Harris-Foulkes estimate   =      -8.36289609 Ry
     estimated scf accuracy    <       0.00024577 Ry

     iteration #  5     ecut=    50.00 Ry     beta=0.30
     Davidson diagonalization with overlap
     ethr =  1.37E-06,  avg # of iterations =  2.1

     total cpu time spent up to now is        5.8 secs

     total energy              =      -8.36300444 Ry
     Harris-Foulkes estimate   =      -8.36301982 Ry
     estimated scf accuracy    <       0.00002721 Ry

     iteration #  6     ecut=    50.00 Ry     beta=0.30
     Davidson diagonalization with overlap
     ethr =  1.51E-07,  avg # of iterations =  2.3

     total cpu time spent up to now is        6.6 secs

     total energy              =      -8.36301128 Ry
     Harris-Foulkes estimate   =      -8.36301032 Ry
     estimated scf accuracy    <       0.00000026 Ry

     iteration #  7     ecut=    50.00 Ry     beta=0.30
     Davidson diagonalization with overlap
     ethr =  1.45E-09,  avg # of iterations =  3.2

     total cpu time spent up to now is        7.6 secs

     total energy              =      -8.36301143 Ry
     Harris-Foulkes estimate   =      -8.36301151 Ry
     estimated scf accuracy    <       0.00000011 Ry

     iteration #  8     ecut=    50.00 Ry     beta=0.30
     Davidson diagonalization with overlap
     ethr =  6.02E-10,  avg # of iterations =  2.4

     total cpu time spent up to now is        8.5 secs

     total energy              =      -8.36301147 Ry
     Harris-Foulkes estimate   =      -8.36301146 Ry
     estimated scf accuracy    <          7.2E-09 Ry

     iteration #  9     ecut=    50.00 Ry     beta=0.30
     Davidson diagonalization with overlap
     ethr =  4.02E-11,  avg # of iterations =  2.0

     total cpu time spent up to now is        9.4 secs

     End of self-consistent calculation

          k = 0.0000 0.0000 0.0000 (  1639 PWs)   bands (ev):

    -7.9217   4.7622   4.7622   4.7622   6.4425   6.4425   6.4425   7.8863
     9.7189  11.5723

          k =-0.2000 0.2000-0.2000 (  1606 PWs)   bands (ev):

    -7.3634   1.2656   4.0147   4.0147   6.0934   7.3531   7.3531  10.1158
    10.3994  10.3994

          k =-0.4000 0.4000-0.4000 (  1616 PWs)   bands (ev):

    -5.8091  -2.3607   3.4575   3.4575   5.5150   6.9353   6.9353   9.5710
    12.7278  12.7278

          k = 0.0000 0.4000 0.0000 (  1607 PWs)   bands (ev):

    -7.1747   2.1490   2.8325   2.8325   4.7523   6.9010   9.2081   9.2081
    11.3949  12.3580

          k =-0.2000 0.6000-0.2000 (  1619 PWs)   bands (ev):

    -5.9153  -1.0051   1.4932   2.2912   4.8995   7.3469   9.1330   9.3817
    13.0308  14.0580

          k = 0.6000-0.2000 0.6000 (  1596 PWs)   bands (ev):

    -4.8062  -2.7313   0.5371   2.6753   5.1994   8.4434   8.5103  11.2889
    11.8825  12.1510

          k = 0.4000 0.0000 0.4000 (  1610 PWs)   bands (ev):

    -6.4527  -0.0201   0.8040   3.7746   6.5225   7.9146   8.1686   9.1936
     9.3066  13.5993

          k = 0.0000 0.8000 0.0000 (  1624 PWs)   bands (ev):

    -4.9874  -1.6129   1.4873   1.4873   3.5240   4.0305  12.8222  12.8222
    14.7064  15.4713

          k = 0.8000 0.0000 0.8000 (  1622 PWs)   bands (ev):

    -3.5108  -3.0336  -0.5694   1.6358   3.8959   6.5317  12.1995  12.6635
    12.7787  12.8195

          k = 0.6000-0.2000 1.0000 (  1616 PWs)   bands (ev):

    -4.4178  -1.9963  -0.4036   0.7615   6.9326   6.9758   8.2455  11.5435
    12.7449  14.2297

     highest occupied, lowest unoccupied level (ev):    14.7064   10.3994

!    total energy              =      -8.36301147 Ry
     Harris-Foulkes estimate   =      -8.36301147 Ry
     estimated scf accuracy    <          2.6E-10 Ry

     The total energy is the sum of the following terms:

     one-electron contribution =      19.82959149 Ry
     hartree contribution      =       1.57247479 Ry
     xc contribution           =     -12.96799001 Ry
     ewald contribution        =     -16.79708774 Ry

     convergence has been achieved in   9 iterations

     Forces acting on atoms (Ry/au):

     atom    1 type  1   force =     0.00000000    0.00000000   -0.00000000
     atom    2 type  1   force =    -0.00000000   -0.00000000    0.00000000

     Total force =     0.000000     Total SCF correction =     0.000000


     entering subroutine stress ...

          total   stress  (Ry/bohr**3)                   (kbar)     P= 4885.19
   0.03320887  -0.00000000  -0.00000000       4885.19     -0.00     -0.00
  -0.00000000   0.03320887   0.00000000         -0.00   4885.19      0.00
  -0.00000000   0.00000000   0.03320887         -0.00      0.00   4885.19


     Writing output data file Si.save

     init_run     :      1.04s CPU      1.08s WALL (       1 calls)
     electrons    :      8.18s CPU      8.25s WALL (       1 calls)
     forces       :      0.11s CPU      0.11s WALL (       1 calls)
     stress       :      0.57s CPU      0.59s WALL (       1 calls)

     Called by init_run:
     wfcinit      :      0.88s CPU      0.88s WALL (       1 calls)
     potinit      :      0.05s CPU      0.07s WALL (       1 calls)

     Called by electrons:
     c_bands      :      6.65s CPU      6.70s WALL (       9 calls)
     sum_band     :      1.17s CPU      1.17s WALL (       9 calls)
     v_of_rho     :      0.35s CPU      0.37s WALL (      10 calls)
     mix_rho      :      0.02s CPU      0.02s WALL (       9 calls)

     Called by c_bands:
     init_us_2    :      0.29s CPU      0.30s WALL (     210 calls)
     cegterg      :      6.45s CPU      6.49s WALL (      90 calls)

     Called by *egterg:
     h_psi        :      6.54s CPU      6.57s WALL (     335 calls)
     g_psi        :      0.01s CPU      0.01s WALL (     235 calls)
     cdiaghg      :      0.09s CPU      0.09s WALL (     325 calls)

     Called by h_psi:
     add_vuspsi   :      0.17s CPU      0.17s WALL (     335 calls)

     General routines
     calbec       :      0.22s CPU      0.23s WALL (     355 calls)
     fft          :      0.15s CPU      0.16s WALL (     117 calls)
     fftw         :      6.70s CPU      6.73s WALL (    6676 calls)
     davcio       :      0.00s CPU      0.01s WALL (      10 calls)

     Parallel routines
     fft_scatter  :      0.17s CPU      0.17s WALL (    6793 calls)

     PWSCF        :     9.98s CPU        10.18s WALL


   This run was terminated on:  18:53:51  14Feb2023            

=------------------------------------------------------------------------------=
   JOB DONE.
=------------------------------------------------------------------------------=
