
     Program PWSCF v.5.1 starts on 24May2022 at 14: 9:43 

     This program is part of the open-source Quantum ESPRESSO suite
     for quantum simulation of materials; please cite
         "P. Giannozzi et al., J. Phys.:Condens. Matter 21 395502 (2009);
          URL http://www.quantum-espresso.org", 
     in publications or presentations arising from this work. More details at
     http://www.quantum-espresso.org/quote

     Parallel version (MPI), running on     1 processors
     Waiting for input...
     Reading input from standard input

     Current dimensions of program PWSCF are:
     Max number of different atomic species (ntypx) = 10
     Max number of k-points (npk) =  40000
     Max angular momentum in pseudopotentials (lmaxx) =  3

     Subspace diagonalization in iterative solution of the eigenvalue problem:
     a serial algorithm will be used


     G-vector sticks info
     --------------------
     sticks:   dense  smooth     PW     G-vecs:    dense   smooth      PW
     Sum         199     199     85                 1917     1917     459



     bravais-lattice index     =            2
     lattice parameter (alat)  =      10.0000  a.u.
     unit-cell volume          =     250.0000 (a.u.)^3
     number of atoms/cell      =            2
     number of atomic types    =            1
     number of electrons       =         8.00
     number of Kohn-Sham states=            4
     kinetic-energy cutoff     =      15.0000  Ry
     charge density cutoff     =      60.0000  Ry
     convergence threshold     =      1.0E-06
     mixing beta               =       0.7000
     number of iterations used =            8  plain     mixing
     Exchange-correlation      =  SLA  PW   PBE  PBE ( 1  4  3  4 0)

     celldm(1)=  10.000000  celldm(2)=   0.000000  celldm(3)=   0.000000
     celldm(4)=   0.000000  celldm(5)=   0.000000  celldm(6)=   0.000000

     crystal axes: (cart. coord. in units of alat)
               a(1) = (  -0.500000   0.000000   0.500000 )  
               a(2) = (   0.000000   0.500000   0.500000 )  
               a(3) = (  -0.500000   0.500000   0.000000 )  

     reciprocal axes: (cart. coord. in units 2 pi/alat)
               b(1) = ( -1.000000 -1.000000  1.000000 )  
               b(2) = (  1.000000  1.000000  1.000000 )  
               b(3) = ( -1.000000  1.000000 -1.000000 )  


     PseudoPot. # 1 for Si read from file:
     ./Si.pbe-rrkj.UPF
     MD5 check sum: cf7ab5690cd9a85b22c4813f7e365554
     Pseudo is Norm-conserving, Zval =  4.0
     Generated by new atomic code, or converted to UPF format
     Using radial grid of  883 points,  3 beta functions with: 
                l(1) =   0
                l(2) =   0
                l(3) =   1

     atomic species   valence    mass     pseudopotential
        Si             4.00    28.08600     Si( 1.00)

     24 Sym. Ops. (no inversion) found
          (note: 24 additional sym.ops. were found but ignored
           their fractional translations are incommensurate with FFT grid)


   Cartesian axes

     site n.     atom                  positions (alat units)
         1           Si  tau(   1) = (   0.0000000   0.0000000   0.0000000  )
         2           Si  tau(   2) = (   0.2500000   0.2500000   0.2500000  )

     number of k points=    28
                       cart. coord. in units 2pi/alat
        k(    1) = (  -0.0833333   0.0833333   0.0833333), wk =   0.0185185
        k(    2) = (  -0.2500000   0.2500000  -0.0833333), wk =   0.0555556
        k(    3) = (  -0.4166667   0.4166667  -0.2500000), wk =   0.0555556
        k(    4) = (   0.4166667  -0.4166667   0.5833333), wk =   0.0555556
        k(    5) = (   0.2500000  -0.2500000   0.4166667), wk =   0.0555556
        k(    6) = (   0.0833333  -0.0833333   0.2500000), wk =   0.0555556
        k(    7) = (  -0.0833333   0.4166667   0.0833333), wk =   0.0555556
        k(    8) = (  -0.2500000   0.5833333  -0.0833333), wk =   0.1111111
        k(    9) = (   0.5833333  -0.2500000   0.7500000), wk =   0.1111111
        k(   10) = (   0.4166667  -0.0833333   0.5833333), wk =   0.1111111
        k(   11) = (   0.2500000   0.0833333   0.4166667), wk =   0.1111111
        k(   12) = (  -0.0833333   0.7500000   0.0833333), wk =   0.0555556
        k(   13) = (   0.7500000  -0.0833333   0.9166667), wk =   0.1111111
        k(   14) = (   0.5833333   0.0833333   0.7500000), wk =   0.1111111
        k(   15) = (   0.4166667   0.2500000   0.5833333), wk =   0.1111111
        k(   16) = (  -0.0833333  -0.9166667   0.0833333), wk =   0.0555556
        k(   17) = (  -0.2500000  -0.7500000  -0.0833333), wk =   0.1111111
        k(   18) = (  -0.0833333  -0.5833333   0.0833333), wk =   0.0555556
        k(   19) = (  -0.2500000   0.2500000   0.2500000), wk =   0.0185185
        k(   20) = (  -0.4166667   0.4166667   0.0833333), wk =   0.0555556
        k(   21) = (   0.4166667  -0.4166667   0.9166667), wk =   0.0555556
        k(   22) = (   0.2500000  -0.2500000   0.7500000), wk =   0.0555556
        k(   23) = (  -0.2500000   0.5833333   0.2500000), wk =   0.0555556
        k(   24) = (   0.5833333  -0.2500000   1.0833333), wk =   0.1111111
        k(   25) = (   0.4166667  -0.0833333   0.9166667), wk =   0.1111111
        k(   26) = (  -0.2500000  -1.0833333   0.2500000), wk =   0.0555556
        k(   27) = (  -0.4166667   0.4166667   0.4166667), wk =   0.0185185
        k(   28) = (   0.4166667  -0.4166667   1.2500000), wk =   0.0555556

     Dense  grid:     1917 G-vectors     FFT dimensions: (  18,  18,  18)

     Largest allocated arrays     est. size (Mb)     dimensions
        Kohn-Sham Wavefunctions         0.02 Mb     (     259,    4)
        NL pseudopotentials             0.04 Mb     (     259,   10)
        Each V/rho on FFT grid          0.09 Mb     (    5832)
        Each G-vector array             0.01 Mb     (    1917)
        G-vector shells                 0.00 Mb     (      52)
     Largest temporary arrays     est. size (Mb)     dimensions
        Auxiliary wavefunctions         0.06 Mb     (     259,   16)
        Each subspace H/S matrix        0.00 Mb     (      16,   16)
        Each <psi_i|beta_j> matrix      0.00 Mb     (      10,    4)
        Arrays for rho mixing           0.71 Mb     (    5832,    8)

     Initial potential from superposition of free atoms

     starting charge    7.99889, renormalised to    8.00000
     Starting wfc are    8 randomized atomic wfcs

     total cpu time spent up to now is        1.9 secs

     per-process dynamical memory:     5.4 Mb

     Self-consistent Calculation

     iteration #  1     ecut=    15.00 Ry     beta=0.70
     Davidson diagonalization with overlap
     ethr =  1.00E-02,  avg # of iterations =  2.0

     Threshold (ethr) on eigenvalues was too large:
     Diagonalizing with lowered threshold

     Davidson diagonalization with overlap
     ethr =  8.26E-04,  avg # of iterations =  1.0

     total cpu time spent up to now is        3.8 secs

     total energy              =     -15.72328233 Ry
     Harris-Foulkes estimate   =     -15.74030512 Ry
     estimated scf accuracy    <       0.06481731 Ry

     iteration #  2     ecut=    15.00 Ry     beta=0.70
     Davidson diagonalization with overlap
     ethr =  8.10E-04,  avg # of iterations =  1.0

     total cpu time spent up to now is        4.4 secs

     total energy              =     -15.72590970 Ry
     Harris-Foulkes estimate   =     -15.72596545 Ry
     estimated scf accuracy    <       0.00278404 Ry

     iteration #  3     ecut=    15.00 Ry     beta=0.70
     Davidson diagonalization with overlap
     ethr =  3.48E-05,  avg # of iterations =  2.8

     total cpu time spent up to now is        5.1 secs

     total energy              =     -15.72643759 Ry
     Harris-Foulkes estimate   =     -15.72646753 Ry
     estimated scf accuracy    <       0.00007979 Ry

     iteration #  4     ecut=    15.00 Ry     beta=0.70
     Davidson diagonalization with overlap
     ethr =  9.97E-07,  avg # of iterations =  2.3

     total cpu time spent up to now is        5.6 secs

     total energy              =     -15.72646211 Ry
     Harris-Foulkes estimate   =     -15.72646378 Ry
     estimated scf accuracy    <       0.00000623 Ry

     iteration #  5     ecut=    15.00 Ry     beta=0.70
     Davidson diagonalization with overlap
     ethr =  7.79E-08,  avg # of iterations =  2.1

     total cpu time spent up to now is        6.5 secs

     End of self-consistent calculation

          k =-0.0833 0.0833 0.0833 (   259 PWs)   bands (ev):

    -5.2840   6.2161   6.9179   6.9179

          k =-0.2500 0.2500-0.0833 (   251 PWs)   bands (ev):

    -4.7724   4.0822   5.5953   6.7082

          k =-0.4167 0.4167-0.2500 (   248 PWs)   bands (ev):

    -3.5887   1.1316   5.1334   6.0322

          k = 0.4167-0.4167 0.5833 (   246 PWs)   bands (ev):

    -2.8055  -0.1224   5.2214   5.6224

          k = 0.2500-0.2500 0.4167 (   246 PWs)   bands (ev):

    -4.0375   2.0412   5.6720   5.7575

          k = 0.0833-0.0833 0.2500 (   255 PWs)   bands (ev):

    -5.0262   5.1458   6.2144   6.4589

          k =-0.0833 0.4167 0.0833 (   243 PWs)   bands (ev):

    -4.5133   3.9587   5.4352   5.4558

          k =-0.2500 0.5833-0.0833 (   245 PWs)   bands (ev):

    -3.5327   2.0250   4.0132   5.0284

          k = 0.5833-0.2500 0.7500 (   245 PWs)   bands (ev):

    -2.2977   0.0918   3.4020   4.7714

          k = 0.4167-0.0833 0.5833 (   246 PWs)   bands (ev):

    -3.1005   1.2659   3.3178   5.3105

          k = 0.2500 0.0833 0.4167 (   247 PWs)   bands (ev):

    -4.2700   3.0336   4.7664   6.0485

          k =-0.0833 0.7500 0.0833 (   242 PWs)   bands (ev):

    -2.7714   1.2063   3.9555   4.3377

          k = 0.7500-0.0833 0.9167 (   242 PWs)   bands (ev):

    -1.4725  -0.2180   3.0180   3.8816

          k = 0.5833 0.0833 0.7500 (   244 PWs)   bands (ev):

    -1.8469   0.0912   2.5059   4.4733

          k = 0.4167 0.2500 0.5833 (   247 PWs)   bands (ev):

    -2.9677   0.4546   4.3877   5.4207

          k =-0.0833-0.9167 0.0833 (   238 PWs)   bands (ev):

    -1.5841  -0.2328   3.6628   4.1100

          k =-0.2500-0.7500-0.0833 (   245 PWs)   bands (ev):

    -2.5839   0.9581   3.3883   4.2453

          k =-0.0833-0.5833 0.0833 (   245 PWs)   bands (ev):

    -3.7572   2.6391   4.5533   4.7882

          k =-0.2500 0.2500 0.2500 (   247 PWs)   bands (ev):

    -4.5240   3.0242   6.2720   6.2720

          k =-0.4167 0.4167 0.0833 (   251 PWs)   bands (ev):

    -3.7921   2.0955   3.9766   6.0980

          k = 0.4167-0.4167 0.9167 (   244 PWs)   bands (ev):

    -2.5047   0.5976   2.7654   5.2450

          k = 0.2500-0.2500 0.7500 (   242 PWs)   bands (ev):

    -2.4541   0.5145   3.3022   4.7222

          k =-0.2500 0.5833 0.2500 (   242 PWs)   bands (ev):

    -3.3309   1.2185   4.5316   5.1215

          k = 0.5833-0.2500 1.0833 (   245 PWs)   bands (ev):

    -2.2428   0.5183   2.8661   4.2329

          k = 0.4167-0.0833 0.9167 (   245 PWs)   bands (ev):

    -1.3405  -0.2253   2.6534   3.4983

          k =-0.2500-1.0833 0.2500 (   241 PWs)   bands (ev):

    -1.5619  -0.1536   2.5177   4.5126

          k =-0.4167 0.4167 0.4167 (   241 PWs)   bands (ev):

    -3.2202   0.3146   5.8711   5.8711

          k = 0.4167-0.4167 1.2500 (   248 PWs)   bands (ev):

    -2.5547   0.0168   3.9245   5.3835

     highest occupied level (ev):     6.9179

!    total energy              =     -15.72646323 Ry
     Harris-Foulkes estimate   =     -15.72646327 Ry
     estimated scf accuracy    <       0.00000012 Ry

     The total energy is the sum of the following terms:

     one-electron contribution =       5.37861840 Ry
     hartree contribution      =       1.02674561 Ry
     xc contribution           =      -4.89407345 Ry
     ewald contribution        =     -17.23775379 Ry

     convergence has been achieved in   5 iterations

     Writing output data file Si_exc1.save

     init_run     :      0.39s CPU      1.52s WALL (       1 calls)
     electrons    :      2.03s CPU      4.68s WALL (       1 calls)

     Called by init_run:
     wfcinit      :      0.22s CPU      0.84s WALL (       1 calls)
     potinit      :      0.01s CPU      0.06s WALL (       1 calls)

     Called by electrons:
     c_bands      :      1.65s CPU      3.84s WALL (       6 calls)
     sum_band     :      0.32s CPU      0.70s WALL (       6 calls)
     v_of_rho     :      0.06s CPU      0.15s WALL (       6 calls)
     mix_rho      :      0.00s CPU      0.02s WALL (       6 calls)

     Called by c_bands:
     init_us_2    :      0.05s CPU      0.11s WALL (     364 calls)
     cegterg      :      1.60s CPU      3.75s WALL (     168 calls)

     Called by *egterg:
     h_psi        :      1.61s CPU      4.08s WALL (     511 calls)
     g_psi        :      0.01s CPU      0.02s WALL (     315 calls)
     cdiaghg      :      0.06s CPU      0.10s WALL (     455 calls)

     Called by h_psi:
     add_vuspsi   :      0.04s CPU      0.12s WALL (     511 calls)

     General routines
     calbec       :      0.04s CPU      0.14s WALL (     511 calls)
     fft          :      0.05s CPU      0.13s WALL (      67 calls)
     fftw         :      1.68s CPU      4.14s WALL (    4626 calls)
     davcio       :      0.00s CPU      0.00s WALL (      28 calls)

     Parallel routines
     fft_scatter  :      0.09s CPU      0.16s WALL (    4693 calls)

     PWSCF        :     3.07s CPU         7.38s WALL


   This run was terminated on:  14: 9:50  24May2022            

=------------------------------------------------------------------------------=
   JOB DONE.
=------------------------------------------------------------------------------=
