
     Program PWSCF v.5.1 starts on 24May2022 at 14:10: 5 

     This program is part of the open-source Quantum ESPRESSO suite
     for quantum simulation of materials; please cite
         "P. Giannozzi et al., J. Phys.:Condens. Matter 21 395502 (2009);
          URL http://www.quantum-espresso.org", 
     in publications or presentations arising from this work. More details at
     http://www.quantum-espresso.org/quote

     Parallel version (MPI), running on     1 processors
     Waiting for input...
     Reading input from standard input

     Current dimensions of program PWSCF are:
     Max number of different atomic species (ntypx) = 10
     Max number of k-points (npk) =  40000
     Max angular momentum in pseudopotentials (lmaxx) =  3

     Subspace diagonalization in iterative solution of the eigenvalue problem:
     a serial algorithm will be used


     G-vector sticks info
     --------------------
     sticks:   dense  smooth     PW     G-vecs:    dense   smooth      PW
     Sum         421     421    139                 5577     5577    1067



     bravais-lattice index     =            2
     lattice parameter (alat)  =      10.0000  a.u.
     unit-cell volume          =     250.0000 (a.u.)^3
     number of atoms/cell      =            2
     number of atomic types    =            1
     number of electrons       =         8.00
     number of Kohn-Sham states=            4
     kinetic-energy cutoff     =      30.0000  Ry
     charge density cutoff     =     120.0000  Ry
     convergence threshold     =      1.0E-06
     mixing beta               =       0.7000
     number of iterations used =            8  plain     mixing
     Exchange-correlation      =  SLA  PW   PBE  PBE ( 1  4  3  4 0)

     celldm(1)=  10.000000  celldm(2)=   0.000000  celldm(3)=   0.000000
     celldm(4)=   0.000000  celldm(5)=   0.000000  celldm(6)=   0.000000

     crystal axes: (cart. coord. in units of alat)
               a(1) = (  -0.500000   0.000000   0.500000 )  
               a(2) = (   0.000000   0.500000   0.500000 )  
               a(3) = (  -0.500000   0.500000   0.000000 )  

     reciprocal axes: (cart. coord. in units 2 pi/alat)
               b(1) = ( -1.000000 -1.000000  1.000000 )  
               b(2) = (  1.000000  1.000000  1.000000 )  
               b(3) = ( -1.000000  1.000000 -1.000000 )  


     PseudoPot. # 1 for Si read from file:
     ./Si.pbe-rrkj.UPF
     MD5 check sum: cf7ab5690cd9a85b22c4813f7e365554
     Pseudo is Norm-conserving, Zval =  4.0
     Generated by new atomic code, or converted to UPF format
     Using radial grid of  883 points,  3 beta functions with: 
                l(1) =   0
                l(2) =   0
                l(3) =   1

     atomic species   valence    mass     pseudopotential
        Si             4.00    28.08600     Si( 1.00)

     24 Sym. Ops. (no inversion) found
          (note: 24 additional sym.ops. were found but ignored
           their fractional translations are incommensurate with FFT grid)


   Cartesian axes

     site n.     atom                  positions (alat units)
         1           Si  tau(   1) = (   0.0000000   0.0000000   0.0000000  )
         2           Si  tau(   2) = (   0.2500000   0.2500000   0.2500000  )

     number of k points=    28
                       cart. coord. in units 2pi/alat
        k(    1) = (  -0.0833333   0.0833333   0.0833333), wk =   0.0185185
        k(    2) = (  -0.2500000   0.2500000  -0.0833333), wk =   0.0555556
        k(    3) = (  -0.4166667   0.4166667  -0.2500000), wk =   0.0555556
        k(    4) = (   0.4166667  -0.4166667   0.5833333), wk =   0.0555556
        k(    5) = (   0.2500000  -0.2500000   0.4166667), wk =   0.0555556
        k(    6) = (   0.0833333  -0.0833333   0.2500000), wk =   0.0555556
        k(    7) = (  -0.0833333   0.4166667   0.0833333), wk =   0.0555556
        k(    8) = (  -0.2500000   0.5833333  -0.0833333), wk =   0.1111111
        k(    9) = (   0.5833333  -0.2500000   0.7500000), wk =   0.1111111
        k(   10) = (   0.4166667  -0.0833333   0.5833333), wk =   0.1111111
        k(   11) = (   0.2500000   0.0833333   0.4166667), wk =   0.1111111
        k(   12) = (  -0.0833333   0.7500000   0.0833333), wk =   0.0555556
        k(   13) = (   0.7500000  -0.0833333   0.9166667), wk =   0.1111111
        k(   14) = (   0.5833333   0.0833333   0.7500000), wk =   0.1111111
        k(   15) = (   0.4166667   0.2500000   0.5833333), wk =   0.1111111
        k(   16) = (  -0.0833333  -0.9166667   0.0833333), wk =   0.0555556
        k(   17) = (  -0.2500000  -0.7500000  -0.0833333), wk =   0.1111111
        k(   18) = (  -0.0833333  -0.5833333   0.0833333), wk =   0.0555556
        k(   19) = (  -0.2500000   0.2500000   0.2500000), wk =   0.0185185
        k(   20) = (  -0.4166667   0.4166667   0.0833333), wk =   0.0555556
        k(   21) = (   0.4166667  -0.4166667   0.9166667), wk =   0.0555556
        k(   22) = (   0.2500000  -0.2500000   0.7500000), wk =   0.0555556
        k(   23) = (  -0.2500000   0.5833333   0.2500000), wk =   0.0555556
        k(   24) = (   0.5833333  -0.2500000   1.0833333), wk =   0.1111111
        k(   25) = (   0.4166667  -0.0833333   0.9166667), wk =   0.1111111
        k(   26) = (  -0.2500000  -1.0833333   0.2500000), wk =   0.0555556
        k(   27) = (  -0.4166667   0.4166667   0.4166667), wk =   0.0185185
        k(   28) = (   0.4166667  -0.4166667   1.2500000), wk =   0.0555556

     Dense  grid:     5577 G-vectors     FFT dimensions: (  25,  25,  25)

     Largest allocated arrays     est. size (Mb)     dimensions
        Kohn-Sham Wavefunctions         0.04 Mb     (     700,    4)
        NL pseudopotentials             0.11 Mb     (     700,   10)
        Each V/rho on FFT grid          0.24 Mb     (   15625)
        Each G-vector array             0.04 Mb     (    5577)
        G-vector shells                 0.00 Mb     (     103)
     Largest temporary arrays     est. size (Mb)     dimensions
        Auxiliary wavefunctions         0.17 Mb     (     700,   16)
        Each subspace H/S matrix        0.00 Mb     (      16,   16)
        Each <psi_i|beta_j> matrix      0.00 Mb     (      10,    4)
        Arrays for rho mixing           1.91 Mb     (   15625,    8)

     Initial potential from superposition of free atoms

     starting charge    7.99889, renormalised to    8.00000
     Starting wfc are    8 randomized atomic wfcs

     total cpu time spent up to now is        1.2 secs

     per-process dynamical memory:     8.1 Mb

     Self-consistent Calculation

     iteration #  1     ecut=    30.00 Ry     beta=0.70
     Davidson diagonalization with overlap
     ethr =  1.00E-02,  avg # of iterations =  2.0

     Threshold (ethr) on eigenvalues was too large:
     Diagonalizing with lowered threshold

     Davidson diagonalization with overlap
     ethr =  8.34E-04,  avg # of iterations =  1.0

     total cpu time spent up to now is        2.2 secs

     total energy              =     -15.72928421 Ry
     Harris-Foulkes estimate   =     -15.74615719 Ry
     estimated scf accuracy    <       0.06529968 Ry

     iteration #  2     ecut=    30.00 Ry     beta=0.70
     Davidson diagonalization with overlap
     ethr =  8.16E-04,  avg # of iterations =  1.0

     total cpu time spent up to now is        2.5 secs

     total energy              =     -15.73204664 Ry
     Harris-Foulkes estimate   =     -15.73200941 Ry
     estimated scf accuracy    <       0.00283215 Ry

     iteration #  3     ecut=    30.00 Ry     beta=0.70
     Davidson diagonalization with overlap
     ethr =  3.54E-05,  avg # of iterations =  2.7

     total cpu time spent up to now is        3.0 secs

     total energy              =     -15.73258833 Ry
     Harris-Foulkes estimate   =     -15.73261964 Ry
     estimated scf accuracy    <       0.00008724 Ry

     iteration #  4     ecut=    30.00 Ry     beta=0.70
     Davidson diagonalization with overlap
     ethr =  1.09E-06,  avg # of iterations =  2.4

     total cpu time spent up to now is        3.6 secs

     total energy              =     -15.73261474 Ry
     Harris-Foulkes estimate   =     -15.73261722 Ry
     estimated scf accuracy    <       0.00000831 Ry

     iteration #  5     ecut=    30.00 Ry     beta=0.70
     Davidson diagonalization with overlap
     ethr =  1.04E-07,  avg # of iterations =  2.1

     total cpu time spent up to now is        4.0 secs

     End of self-consistent calculation

          k =-0.0833 0.0833 0.0833 (   700 PWs)   bands (ev):

    -5.2841   6.2096   6.9110   6.9110

          k =-0.2500 0.2500-0.0833 (   688 PWs)   bands (ev):

    -4.7728   4.0734   5.5852   6.7008

          k =-0.4167 0.4167-0.2500 (   690 PWs)   bands (ev):

    -3.5894   1.1251   5.1212   6.0216

          k = 0.4167-0.4167 0.5833 (   695 PWs)   bands (ev):

    -2.8066  -0.1289   5.2110   5.6079

          k = 0.2500-0.2500 0.4167 (   695 PWs)   bands (ev):

    -4.0387   2.0338   5.6584   5.7459

          k = 0.0833-0.0833 0.2500 (   687 PWs)   bands (ev):

    -5.0263   5.1373   6.2064   6.4516

          k =-0.0833 0.4167 0.0833 (   688 PWs)   bands (ev):

    -4.5148   3.9499   5.4220   5.4442

          k =-0.2500 0.5833-0.0833 (   689 PWs)   bands (ev):

    -3.5343   2.0188   4.0031   5.0156

          k = 0.5833-0.2500 0.7500 (   695 PWs)   bands (ev):

    -2.2991   0.0852   3.3922   4.7594

          k = 0.4167-0.0833 0.5833 (   692 PWs)   bands (ev):

    -3.1023   1.2603   3.3084   5.2973

          k = 0.2500 0.0833 0.4167 (   692 PWs)   bands (ev):

    -4.2713   3.0255   4.7556   6.0375

          k =-0.0833 0.7500 0.0833 (   690 PWs)   bands (ev):

    -2.7743   1.2022   3.9425   4.3243

          k = 0.7500-0.0833 0.9167 (   695 PWs)   bands (ev):

    -1.4763  -0.2221   3.0072   3.8684

          k = 0.5833 0.0833 0.7500 (   698 PWs)   bands (ev):

    -1.8494   0.0843   2.4968   4.4611

          k = 0.4167 0.2500 0.5833 (   694 PWs)   bands (ev):

    -2.9690   0.4485   4.3780   5.4081

          k =-0.0833-0.9167 0.0833 (   698 PWs)   bands (ev):

    -1.5880  -0.2372   3.6500   4.0952

          k =-0.2500-0.7500-0.0833 (   694 PWs)   bands (ev):

    -2.5857   0.9532   3.3784   4.2330

          k =-0.0833-0.5833 0.0833 (   692 PWs)   bands (ev):

    -3.7588   2.6341   4.5426   4.7741

          k =-0.2500 0.2500 0.2500 (   691 PWs)   bands (ev):

    -4.5254   3.0154   6.2596   6.2596

          k =-0.4167 0.4167 0.0833 (   688 PWs)   bands (ev):

    -3.7932   2.0887   3.9678   6.0868

          k = 0.4167-0.4167 0.9167 (   690 PWs)   bands (ev):

    -2.5071   0.5907   2.7565   5.2314

          k = 0.2500-0.2500 0.7500 (   697 PWs)   bands (ev):

    -2.4565   0.5086   3.2928   4.7072

          k =-0.2500 0.5833 0.2500 (   694 PWs)   bands (ev):

    -3.3330   1.2113   4.5200   5.1080

          k = 0.5833-0.2500 1.0833 (   695 PWs)   bands (ev):

    -2.2453   0.5132   2.8571   4.2209

          k = 0.4167-0.0833 0.9167 (   700 PWs)   bands (ev):

    -1.3428  -0.2304   2.6438   3.4871

          k =-0.2500-1.0833 0.2500 (   699 PWs)   bands (ev):

    -1.5662  -0.1598   2.5081   4.4986

          k =-0.4167 0.4167 0.4167 (   685 PWs)   bands (ev):

    -3.2213   0.3078   5.8555   5.8555

          k = 0.4167-0.4167 1.2500 (   694 PWs)   bands (ev):

    -2.5558   0.0101   3.9157   5.3710

     highest occupied level (ev):     6.9110

!    total energy              =     -15.73261606 Ry
     Harris-Foulkes estimate   =     -15.73261611 Ry
     estimated scf accuracy    <       0.00000014 Ry

     The total energy is the sum of the following terms:

     one-electron contribution =       5.37300032 Ry
     hartree contribution      =       1.02872181 Ry
     xc contribution           =      -4.89658441 Ry
     ewald contribution        =     -17.23775378 Ry

     convergence has been achieved in   5 iterations

     Writing output data file Si_exc1.save

     init_run     :      0.49s CPU      0.93s WALL (       1 calls)
     electrons    :      2.14s CPU      2.81s WALL (       1 calls)

     Called by init_run:
     wfcinit      :      0.25s CPU      0.38s WALL (       1 calls)
     potinit      :      0.03s CPU      0.07s WALL (       1 calls)

     Called by electrons:
     c_bands      :      1.74s CPU      2.30s WALL (       6 calls)
     sum_band     :      0.29s CPU      0.39s WALL (       6 calls)
     v_of_rho     :      0.12s CPU      0.15s WALL (       6 calls)
     mix_rho      :      0.01s CPU      0.01s WALL (       6 calls)

     Called by c_bands:
     init_us_2    :      0.13s CPU      0.18s WALL (     364 calls)
     cegterg      :      1.63s CPU      2.16s WALL (     168 calls)

     Called by *egterg:
     h_psi        :      1.46s CPU      1.95s WALL (     511 calls)
     g_psi        :      0.01s CPU      0.02s WALL (     315 calls)
     cdiaghg      :      0.05s CPU      0.08s WALL (     455 calls)

     Called by h_psi:
     add_vuspsi   :      0.10s CPU      0.12s WALL (     511 calls)

     General routines
     calbec       :      0.11s CPU      0.13s WALL (     511 calls)
     fft          :      0.03s CPU      0.03s WALL (      67 calls)
     fftw         :      1.16s CPU      1.57s WALL (    4630 calls)
     davcio       :      0.00s CPU      0.00s WALL (      28 calls)

     Parallel routines
     fft_scatter  :      0.18s CPU      0.27s WALL (    4697 calls)

     PWSCF        :     3.27s CPU         4.86s WALL


   This run was terminated on:  14:10:10  24May2022            

=------------------------------------------------------------------------------=
   JOB DONE.
=------------------------------------------------------------------------------=
