
     Program PWSCF v.5.1 starts on 24May2022 at 14: 9:50 

     This program is part of the open-source Quantum ESPRESSO suite
     for quantum simulation of materials; please cite
         "P. Giannozzi et al., J. Phys.:Condens. Matter 21 395502 (2009);
          URL http://www.quantum-espresso.org", 
     in publications or presentations arising from this work. More details at
     http://www.quantum-espresso.org/quote

     Parallel version (MPI), running on     1 processors
     Waiting for input...
     Reading input from standard input

     Current dimensions of program PWSCF are:
     Max number of different atomic species (ntypx) = 10
     Max number of k-points (npk) =  40000
     Max angular momentum in pseudopotentials (lmaxx) =  3

     Subspace diagonalization in iterative solution of the eigenvalue problem:
     a serial algorithm will be used


     G-vector sticks info
     --------------------
     sticks:   dense  smooth     PW     G-vecs:    dense   smooth      PW
     Sum         271     271     97                 2975     2975     645



     bravais-lattice index     =            2
     lattice parameter (alat)  =      10.0000  a.u.
     unit-cell volume          =     250.0000 (a.u.)^3
     number of atoms/cell      =            2
     number of atomic types    =            1
     number of electrons       =         8.00
     number of Kohn-Sham states=            4
     kinetic-energy cutoff     =      20.0000  Ry
     charge density cutoff     =      80.0000  Ry
     convergence threshold     =      1.0E-06
     mixing beta               =       0.7000
     number of iterations used =            8  plain     mixing
     Exchange-correlation      =  SLA  PW   PBE  PBE ( 1  4  3  4 0)

     celldm(1)=  10.000000  celldm(2)=   0.000000  celldm(3)=   0.000000
     celldm(4)=   0.000000  celldm(5)=   0.000000  celldm(6)=   0.000000

     crystal axes: (cart. coord. in units of alat)
               a(1) = (  -0.500000   0.000000   0.500000 )  
               a(2) = (   0.000000   0.500000   0.500000 )  
               a(3) = (  -0.500000   0.500000   0.000000 )  

     reciprocal axes: (cart. coord. in units 2 pi/alat)
               b(1) = ( -1.000000 -1.000000  1.000000 )  
               b(2) = (  1.000000  1.000000  1.000000 )  
               b(3) = ( -1.000000  1.000000 -1.000000 )  


     PseudoPot. # 1 for Si read from file:
     ./Si.pbe-rrkj.UPF
     MD5 check sum: cf7ab5690cd9a85b22c4813f7e365554
     Pseudo is Norm-conserving, Zval =  4.0
     Generated by new atomic code, or converted to UPF format
     Using radial grid of  883 points,  3 beta functions with: 
                l(1) =   0
                l(2) =   0
                l(3) =   1

     atomic species   valence    mass     pseudopotential
        Si             4.00    28.08600     Si( 1.00)

     48 Sym. Ops., with inversion, found (24 have fractional translation)



   Cartesian axes

     site n.     atom                  positions (alat units)
         1           Si  tau(   1) = (   0.0000000   0.0000000   0.0000000  )
         2           Si  tau(   2) = (   0.2500000   0.2500000   0.2500000  )

     number of k points=    28
                       cart. coord. in units 2pi/alat
        k(    1) = (  -0.0833333   0.0833333   0.0833333), wk =   0.0185185
        k(    2) = (  -0.2500000   0.2500000  -0.0833333), wk =   0.0555556
        k(    3) = (  -0.4166667   0.4166667  -0.2500000), wk =   0.0555556
        k(    4) = (   0.4166667  -0.4166667   0.5833333), wk =   0.0555556
        k(    5) = (   0.2500000  -0.2500000   0.4166667), wk =   0.0555556
        k(    6) = (   0.0833333  -0.0833333   0.2500000), wk =   0.0555556
        k(    7) = (  -0.0833333   0.4166667   0.0833333), wk =   0.0555556
        k(    8) = (  -0.2500000   0.5833333  -0.0833333), wk =   0.1111111
        k(    9) = (   0.5833333  -0.2500000   0.7500000), wk =   0.1111111
        k(   10) = (   0.4166667  -0.0833333   0.5833333), wk =   0.1111111
        k(   11) = (   0.2500000   0.0833333   0.4166667), wk =   0.1111111
        k(   12) = (  -0.0833333   0.7500000   0.0833333), wk =   0.0555556
        k(   13) = (   0.7500000  -0.0833333   0.9166667), wk =   0.1111111
        k(   14) = (   0.5833333   0.0833333   0.7500000), wk =   0.1111111
        k(   15) = (   0.4166667   0.2500000   0.5833333), wk =   0.1111111
        k(   16) = (  -0.0833333  -0.9166667   0.0833333), wk =   0.0555556
        k(   17) = (  -0.2500000  -0.7500000  -0.0833333), wk =   0.1111111
        k(   18) = (  -0.0833333  -0.5833333   0.0833333), wk =   0.0555556
        k(   19) = (  -0.2500000   0.2500000   0.2500000), wk =   0.0185185
        k(   20) = (  -0.4166667   0.4166667   0.0833333), wk =   0.0555556
        k(   21) = (   0.4166667  -0.4166667   0.9166667), wk =   0.0555556
        k(   22) = (   0.2500000  -0.2500000   0.7500000), wk =   0.0555556
        k(   23) = (  -0.2500000   0.5833333   0.2500000), wk =   0.0555556
        k(   24) = (   0.5833333  -0.2500000   1.0833333), wk =   0.1111111
        k(   25) = (   0.4166667  -0.0833333   0.9166667), wk =   0.1111111
        k(   26) = (  -0.2500000  -1.0833333   0.2500000), wk =   0.0555556
        k(   27) = (  -0.4166667   0.4166667   0.4166667), wk =   0.0185185
        k(   28) = (   0.4166667  -0.4166667   1.2500000), wk =   0.0555556

     Dense  grid:     2975 G-vectors     FFT dimensions: (  24,  24,  24)

     Largest allocated arrays     est. size (Mb)     dimensions
        Kohn-Sham Wavefunctions         0.02 Mb     (     384,    4)
        NL pseudopotentials             0.06 Mb     (     384,   10)
        Each V/rho on FFT grid          0.21 Mb     (   13824)
        Each G-vector array             0.02 Mb     (    2975)
        G-vector shells                 0.00 Mb     (      69)
     Largest temporary arrays     est. size (Mb)     dimensions
        Auxiliary wavefunctions         0.09 Mb     (     384,   16)
        Each subspace H/S matrix        0.00 Mb     (      16,   16)
        Each <psi_i|beta_j> matrix      0.00 Mb     (      10,    4)
        Arrays for rho mixing           1.69 Mb     (   13824,    8)

     Initial potential from superposition of free atoms

     starting charge    7.99889, renormalised to    8.00000
     Starting wfc are    8 randomized atomic wfcs

     total cpu time spent up to now is        1.5 secs

     per-process dynamical memory:     6.9 Mb

     Self-consistent Calculation

     iteration #  1     ecut=    20.00 Ry     beta=0.70
     Davidson diagonalization with overlap
     ethr =  1.00E-02,  avg # of iterations =  2.0

     Threshold (ethr) on eigenvalues was too large:
     Diagonalizing with lowered threshold

     Davidson diagonalization with overlap
     ethr =  8.33E-04,  avg # of iterations =  1.0

     total cpu time spent up to now is        3.7 secs

     total energy              =     -15.72866356 Ry
     Harris-Foulkes estimate   =     -15.74553036 Ry
     estimated scf accuracy    <       0.06530977 Ry

     iteration #  2     ecut=    20.00 Ry     beta=0.70
     Davidson diagonalization with overlap
     ethr =  8.16E-04,  avg # of iterations =  1.0

     total cpu time spent up to now is        4.3 secs

     total energy              =     -15.73139711 Ry
     Harris-Foulkes estimate   =     -15.73138039 Ry
     estimated scf accuracy    <       0.00281925 Ry

     iteration #  3     ecut=    20.00 Ry     beta=0.70
     Davidson diagonalization with overlap
     ethr =  3.52E-05,  avg # of iterations =  2.7

     total cpu time spent up to now is        4.8 secs

     total energy              =     -15.73193800 Ry
     Harris-Foulkes estimate   =     -15.73197056 Ry
     estimated scf accuracy    <       0.00008714 Ry

     iteration #  4     ecut=    20.00 Ry     beta=0.70
     Davidson diagonalization with overlap
     ethr =  1.09E-06,  avg # of iterations =  2.4

     total cpu time spent up to now is        5.3 secs

     total energy              =     -15.73196466 Ry
     Harris-Foulkes estimate   =     -15.73196722 Ry
     estimated scf accuracy    <       0.00000862 Ry

     iteration #  5     ecut=    20.00 Ry     beta=0.70
     Davidson diagonalization with overlap
     ethr =  1.08E-07,  avg # of iterations =  2.0

     total cpu time spent up to now is        5.9 secs

     End of self-consistent calculation

          k =-0.0833 0.0833 0.0833 (   363 PWs)   bands (ev):

    -5.2832   6.2108   6.9131   6.9131

          k =-0.2500 0.2500-0.0833 (   366 PWs)   bands (ev):

    -4.7719   4.0742   5.5866   6.7027

          k =-0.4167 0.4167-0.2500 (   374 PWs)   bands (ev):

    -3.5887   1.1258   5.1224   6.0234

          k = 0.4167-0.4167 0.5833 (   378 PWs)   bands (ev):

    -2.8060  -0.1285   5.2122   5.6094

          k = 0.2500-0.2500 0.4167 (   375 PWs)   bands (ev):

    -4.0379   2.0345   5.6598   5.7472

          k = 0.0833-0.0833 0.2500 (   370 PWs)   bands (ev):

    -5.0254   5.1382   6.2079   6.4530

          k =-0.0833 0.4167 0.0833 (   368 PWs)   bands (ev):

    -4.5139   3.9508   5.4235   5.4454

          k =-0.2500 0.5833-0.0833 (   376 PWs)   bands (ev):

    -3.5336   2.0195   4.0041   5.0170

          k = 0.5833-0.2500 0.7500 (   378 PWs)   bands (ev):

    -2.2985   0.0859   3.3930   4.7606

          k = 0.4167-0.0833 0.5833 (   381 PWs)   bands (ev):

    -3.1016   1.2610   3.3091   5.2984

          k = 0.2500 0.0833 0.4167 (   375 PWs)   bands (ev):

    -4.2705   3.0263   4.7567   6.0387

          k =-0.0833 0.7500 0.0833 (   375 PWs)   bands (ev):

    -2.7737   1.2029   3.9437   4.3255

          k = 0.7500-0.0833 0.9167 (   378 PWs)   bands (ev):

    -1.4757  -0.2215   3.0079   3.8695

          k = 0.5833 0.0833 0.7500 (   382 PWs)   bands (ev):

    -1.8488   0.0848   2.4974   4.4622

          k = 0.4167 0.2500 0.5833 (   377 PWs)   bands (ev):

    -2.9683   0.4491   4.3791   5.4095

          k =-0.0833-0.9167 0.0833 (   375 PWs)   bands (ev):

    -1.5874  -0.2367   3.6512   4.0964

          k =-0.2500-0.7500-0.0833 (   384 PWs)   bands (ev):

    -2.5852   0.9538   3.3792   4.2341

          k =-0.0833-0.5833 0.0833 (   370 PWs)   bands (ev):

    -3.7581   2.6349   4.5440   4.7756

          k =-0.2500 0.2500 0.2500 (   368 PWs)   bands (ev):

    -4.5246   3.0161   6.2614   6.2614

          k =-0.4167 0.4167 0.0833 (   375 PWs)   bands (ev):

    -3.7925   2.0896   3.9687   6.0884

          k = 0.4167-0.4167 0.9167 (   382 PWs)   bands (ev):

    -2.5065   0.5912   2.7572   5.2324

          k = 0.2500-0.2500 0.7500 (   377 PWs)   bands (ev):

    -2.4559   0.5093   3.2935   4.7083

          k =-0.2500 0.5833 0.2500 (   378 PWs)   bands (ev):

    -3.3324   1.2120   4.5210   5.1093

          k = 0.5833-0.2500 1.0833 (   383 PWs)   bands (ev):

    -2.2447   0.5138   2.8577   4.2219

          k = 0.4167-0.0833 0.9167 (   383 PWs)   bands (ev):

    -1.3422  -0.2298   2.6444   3.4880

          k =-0.2500-1.0833 0.2500 (   382 PWs)   bands (ev):

    -1.5656  -0.1593   2.5087   4.5000

          k =-0.4167 0.4167 0.4167 (   374 PWs)   bands (ev):

    -3.2206   0.3082   5.8574   5.8574

          k = 0.4167-0.4167 1.2500 (   379 PWs)   bands (ev):

    -2.5552   0.0107   3.9166   5.3723

     highest occupied level (ev):     6.9131

!    total energy              =     -15.73196605 Ry
     Harris-Foulkes estimate   =     -15.73196610 Ry
     estimated scf accuracy    <       0.00000014 Ry

     The total energy is the sum of the following terms:

     one-electron contribution =       5.37360168 Ry
     hartree contribution      =       1.02855591 Ry
     xc contribution           =      -4.89636986 Ry
     ewald contribution        =     -17.23775378 Ry

     convergence has been achieved in   5 iterations

     Writing output data file Si_exc1.save

     init_run     :      0.53s CPU      1.39s WALL (       1 calls)
     electrons    :      2.85s CPU      4.35s WALL (       1 calls)

     Called by init_run:
     wfcinit      :      0.31s CPU      0.98s WALL (       1 calls)
     potinit      :      0.03s CPU      0.10s WALL (       1 calls)

     Called by electrons:
     c_bands      :      2.29s CPU      3.60s WALL (       6 calls)
     sum_band     :      0.45s CPU      0.61s WALL (       6 calls)
     v_of_rho     :      0.12s CPU      0.20s WALL (       6 calls)
     mix_rho      :      0.01s CPU      0.01s WALL (       6 calls)

     Called by c_bands:
     init_us_2    :      0.08s CPU      0.13s WALL (     364 calls)
     cegterg      :      2.23s CPU      3.51s WALL (     168 calls)

     Called by *egterg:
     h_psi        :      2.28s CPU      3.95s WALL (     509 calls)
     g_psi        :      0.01s CPU      0.02s WALL (     313 calls)
     cdiaghg      :      0.05s CPU      0.10s WALL (     453 calls)

     Called by h_psi:
     add_vuspsi   :      0.06s CPU      0.09s WALL (     509 calls)

     General routines
     calbec       :      0.06s CPU      0.09s WALL (     509 calls)
     fft          :      0.07s CPU      0.11s WALL (      67 calls)
     fftw         :      2.27s CPU      3.88s WALL (    4622 calls)
     davcio       :      0.00s CPU      0.00s WALL (      28 calls)

     Parallel routines
     fft_scatter  :      0.15s CPU      0.26s WALL (    4689 calls)

     PWSCF        :     4.11s CPU         6.97s WALL


   This run was terminated on:  14: 9:57  24May2022            

=------------------------------------------------------------------------------=
   JOB DONE.
=------------------------------------------------------------------------------=
