
     Program PWSCF v.5.1 starts on 24May2022 at 14: 9:39 

     This program is part of the open-source Quantum ESPRESSO suite
     for quantum simulation of materials; please cite
         "P. Giannozzi et al., J. Phys.:Condens. Matter 21 395502 (2009);
          URL http://www.quantum-espresso.org", 
     in publications or presentations arising from this work. More details at
     http://www.quantum-espresso.org/quote

     Parallel version (MPI), running on     1 processors
     Waiting for input...
     Reading input from standard input

     Current dimensions of program PWSCF are:
     Max number of different atomic species (ntypx) = 10
     Max number of k-points (npk) =  40000
     Max angular momentum in pseudopotentials (lmaxx) =  3

     Subspace diagonalization in iterative solution of the eigenvalue problem:
     a serial algorithm will be used


     G-vector sticks info
     --------------------
     sticks:   dense  smooth     PW     G-vecs:    dense   smooth      PW
     Sum         139     139     55                 1067     1067     283



     bravais-lattice index     =            2
     lattice parameter (alat)  =      10.0000  a.u.
     unit-cell volume          =     250.0000 (a.u.)^3
     number of atoms/cell      =            2
     number of atomic types    =            1
     number of electrons       =         8.00
     number of Kohn-Sham states=            4
     kinetic-energy cutoff     =      10.0000  Ry
     charge density cutoff     =      40.0000  Ry
     convergence threshold     =      1.0E-06
     mixing beta               =       0.7000
     number of iterations used =            8  plain     mixing
     Exchange-correlation      =  SLA  PW   PBE  PBE ( 1  4  3  4 0)

     celldm(1)=  10.000000  celldm(2)=   0.000000  celldm(3)=   0.000000
     celldm(4)=   0.000000  celldm(5)=   0.000000  celldm(6)=   0.000000

     crystal axes: (cart. coord. in units of alat)
               a(1) = (  -0.500000   0.000000   0.500000 )  
               a(2) = (   0.000000   0.500000   0.500000 )  
               a(3) = (  -0.500000   0.500000   0.000000 )  

     reciprocal axes: (cart. coord. in units 2 pi/alat)
               b(1) = ( -1.000000 -1.000000  1.000000 )  
               b(2) = (  1.000000  1.000000  1.000000 )  
               b(3) = ( -1.000000  1.000000 -1.000000 )  


     PseudoPot. # 1 for Si read from file:
     ./Si.pbe-rrkj.UPF
     MD5 check sum: cf7ab5690cd9a85b22c4813f7e365554
     Pseudo is Norm-conserving, Zval =  4.0
     Generated by new atomic code, or converted to UPF format
     Using radial grid of  883 points,  3 beta functions with: 
                l(1) =   0
                l(2) =   0
                l(3) =   1

     atomic species   valence    mass     pseudopotential
        Si             4.00    28.08600     Si( 1.00)

     24 Sym. Ops. (no inversion) found
          (note: 24 additional sym.ops. were found but ignored
           their fractional translations are incommensurate with FFT grid)


   Cartesian axes

     site n.     atom                  positions (alat units)
         1           Si  tau(   1) = (   0.0000000   0.0000000   0.0000000  )
         2           Si  tau(   2) = (   0.2500000   0.2500000   0.2500000  )

     number of k points=    28
                       cart. coord. in units 2pi/alat
        k(    1) = (  -0.0833333   0.0833333   0.0833333), wk =   0.0185185
        k(    2) = (  -0.2500000   0.2500000  -0.0833333), wk =   0.0555556
        k(    3) = (  -0.4166667   0.4166667  -0.2500000), wk =   0.0555556
        k(    4) = (   0.4166667  -0.4166667   0.5833333), wk =   0.0555556
        k(    5) = (   0.2500000  -0.2500000   0.4166667), wk =   0.0555556
        k(    6) = (   0.0833333  -0.0833333   0.2500000), wk =   0.0555556
        k(    7) = (  -0.0833333   0.4166667   0.0833333), wk =   0.0555556
        k(    8) = (  -0.2500000   0.5833333  -0.0833333), wk =   0.1111111
        k(    9) = (   0.5833333  -0.2500000   0.7500000), wk =   0.1111111
        k(   10) = (   0.4166667  -0.0833333   0.5833333), wk =   0.1111111
        k(   11) = (   0.2500000   0.0833333   0.4166667), wk =   0.1111111
        k(   12) = (  -0.0833333   0.7500000   0.0833333), wk =   0.0555556
        k(   13) = (   0.7500000  -0.0833333   0.9166667), wk =   0.1111111
        k(   14) = (   0.5833333   0.0833333   0.7500000), wk =   0.1111111
        k(   15) = (   0.4166667   0.2500000   0.5833333), wk =   0.1111111
        k(   16) = (  -0.0833333  -0.9166667   0.0833333), wk =   0.0555556
        k(   17) = (  -0.2500000  -0.7500000  -0.0833333), wk =   0.1111111
        k(   18) = (  -0.0833333  -0.5833333   0.0833333), wk =   0.0555556
        k(   19) = (  -0.2500000   0.2500000   0.2500000), wk =   0.0185185
        k(   20) = (  -0.4166667   0.4166667   0.0833333), wk =   0.0555556
        k(   21) = (   0.4166667  -0.4166667   0.9166667), wk =   0.0555556
        k(   22) = (   0.2500000  -0.2500000   0.7500000), wk =   0.0555556
        k(   23) = (  -0.2500000   0.5833333   0.2500000), wk =   0.0555556
        k(   24) = (   0.5833333  -0.2500000   1.0833333), wk =   0.1111111
        k(   25) = (   0.4166667  -0.0833333   0.9166667), wk =   0.1111111
        k(   26) = (  -0.2500000  -1.0833333   0.2500000), wk =   0.0555556
        k(   27) = (  -0.4166667   0.4166667   0.4166667), wk =   0.0185185
        k(   28) = (   0.4166667  -0.4166667   1.2500000), wk =   0.0555556

     Dense  grid:     1067 G-vectors     FFT dimensions: (  15,  15,  15)

     Largest allocated arrays     est. size (Mb)     dimensions
        Kohn-Sham Wavefunctions         0.01 Mb     (     140,    4)
        NL pseudopotentials             0.02 Mb     (     140,   10)
        Each V/rho on FFT grid          0.05 Mb     (    3375)
        Each G-vector array             0.01 Mb     (    1067)
        G-vector shells                 0.00 Mb     (      36)
     Largest temporary arrays     est. size (Mb)     dimensions
        Auxiliary wavefunctions         0.03 Mb     (     140,   16)
        Each subspace H/S matrix        0.00 Mb     (      16,   16)
        Each <psi_i|beta_j> matrix      0.00 Mb     (      10,    4)
        Arrays for rho mixing           0.41 Mb     (    3375,    8)

     Initial potential from superposition of free atoms

     starting charge    7.99889, renormalised to    8.00000
     Starting wfc are    8 randomized atomic wfcs

     total cpu time spent up to now is        0.9 secs

     per-process dynamical memory:     4.8 Mb

     Self-consistent Calculation

     iteration #  1     ecut=    10.00 Ry     beta=0.70
     Davidson diagonalization with overlap
     ethr =  1.00E-02,  avg # of iterations =  2.0

     Threshold (ethr) on eigenvalues was too large:
     Diagonalizing with lowered threshold

     Davidson diagonalization with overlap
     ethr =  7.94E-04,  avg # of iterations =  1.0

     total cpu time spent up to now is        1.3 secs

     total energy              =     -15.68311815 Ry
     Harris-Foulkes estimate   =     -15.69817760 Ry
     estimated scf accuracy    <       0.06265832 Ry

     iteration #  2     ecut=    10.00 Ry     beta=0.70
     Davidson diagonalization with overlap
     ethr =  7.83E-04,  avg # of iterations =  1.0

     total cpu time spent up to now is        1.5 secs

     total energy              =     -15.68537787 Ry
     Harris-Foulkes estimate   =     -15.68548220 Ry
     estimated scf accuracy    <       0.00285083 Ry

     iteration #  3     ecut=    10.00 Ry     beta=0.70
     Davidson diagonalization with overlap
     ethr =  3.56E-05,  avg # of iterations =  2.2

     total cpu time spent up to now is        1.8 secs

     total energy              =     -15.68578145 Ry
     Harris-Foulkes estimate   =     -15.68579463 Ry
     estimated scf accuracy    <       0.00004907 Ry

     iteration #  4     ecut=    10.00 Ry     beta=0.70
     Davidson diagonalization with overlap
     ethr =  6.13E-07,  avg # of iterations =  2.7

     total cpu time spent up to now is        2.0 secs

     total energy              =     -15.68580329 Ry
     Harris-Foulkes estimate   =     -15.68580308 Ry
     estimated scf accuracy    <       0.00000114 Ry

     iteration #  5     ecut=    10.00 Ry     beta=0.70
     Davidson diagonalization with overlap
     ethr =  1.42E-08,  avg # of iterations =  2.5

     total cpu time spent up to now is        2.3 secs

     End of self-consistent calculation

          k =-0.0833 0.0833 0.0833 (   134 PWs)   bands (ev):

    -5.2129   6.2731   6.9530   6.9530

          k =-0.2500 0.2500-0.0833 (   140 PWs)   bands (ev):

    -4.7058   4.1243   5.6227   6.7414

          k =-0.4167 0.4167-0.2500 (   138 PWs)   bands (ev):

    -3.5196   1.1750   5.1582   6.0540

          k = 0.4167-0.4167 0.5833 (   131 PWs)   bands (ev):

    -2.7211  -0.0693   5.2630   5.6380

          k = 0.2500-0.2500 0.4167 (   140 PWs)   bands (ev):

    -3.9693   2.0804   5.6860   5.7906

          k = 0.0833-0.0833 0.2500 (   134 PWs)   bands (ev):

    -4.9437   5.2001   6.2486   6.5024

          k =-0.0833 0.4167 0.0833 (   134 PWs)   bands (ev):

    -4.4313   4.0168   5.4559   5.4853

          k =-0.2500 0.5833-0.0833 (   136 PWs)   bands (ev):

    -3.4644   2.0868   4.0364   5.0442

          k = 0.5833-0.2500 0.7500 (   132 PWs)   bands (ev):

    -2.2120   0.1564   3.4352   4.7848

          k = 0.4167-0.0833 0.5833 (   134 PWs)   bands (ev):

    -3.0266   1.3326   3.3418   5.3273

          k = 0.2500 0.0833 0.4167 (   137 PWs)   bands (ev):

    -4.1970   3.0850   4.7913   6.0770

          k =-0.0833 0.7500 0.0833 (   131 PWs)   bands (ev):

    -2.6905   1.2849   3.9673   4.3468

          k = 0.7500-0.0833 0.9167 (   129 PWs)   bands (ev):

    -1.3840  -0.1265   3.0310   3.8931

          k = 0.5833 0.0833 0.7500 (   131 PWs)   bands (ev):

    -1.7633   0.1791   2.5238   4.4870

          k = 0.4167 0.2500 0.5833 (   135 PWs)   bands (ev):

    -2.8942   0.5049   4.4245   5.4356

          k =-0.0833-0.9167 0.0833 (   129 PWs)   bands (ev):

    -1.4991  -0.1444   3.6728   4.1164

          k =-0.2500-0.7500-0.0833 (   131 PWs)   bands (ev):

    -2.5057   1.0419   3.4052   4.2579

          k =-0.0833-0.5833 0.0833 (   133 PWs)   bands (ev):

    -3.6745   2.7079   4.5741   4.8015

          k =-0.2500 0.2500 0.2500 (   138 PWs)   bands (ev):

    -4.4508   3.0726   6.2987   6.2987

          k =-0.4167 0.4167 0.0833 (   136 PWs)   bands (ev):

    -3.7194   2.1491   4.0018   6.1191

          k = 0.4167-0.4167 0.9167 (   131 PWs)   bands (ev):

    -2.4186   0.6700   2.7892   5.2581

          k = 0.2500-0.2500 0.7500 (   132 PWs)   bands (ev):

    -2.3827   0.5923   3.3294   4.7313

          k =-0.2500 0.5833 0.2500 (   136 PWs)   bands (ev):

    -3.2584   1.2683   4.5632   5.1359

          k = 0.5833-0.2500 1.0833 (   132 PWs)   bands (ev):

    -2.1644   0.6010   2.8870   4.2457

          k = 0.4167-0.0833 0.9167 (   130 PWs)   bands (ev):

    -1.2534  -0.1258   2.6660   3.5118

          k =-0.2500-1.0833 0.2500 (   130 PWs)   bands (ev):

    -1.4714  -0.0671   2.5301   4.5219

          k =-0.4167 0.4167 0.4167 (   135 PWs)   bands (ev):

    -3.1642   0.3604   5.8831   5.8831

          k = 0.4167-0.4167 1.2500 (   131 PWs)   bands (ev):

    -2.4662   0.0751   3.9695   5.3995

     highest occupied level (ev):     6.9530

!    total energy              =     -15.68580364 Ry
     Harris-Foulkes estimate   =     -15.68580364 Ry
     estimated scf accuracy    <          5.8E-09 Ry

     The total energy is the sum of the following terms:

     one-electron contribution =       5.42569717 Ry
     hartree contribution      =       1.01261056 Ry
     xc contribution           =      -4.88635763 Ry
     ewald contribution        =     -17.23775375 Ry

     convergence has been achieved in   5 iterations

     Writing output data file Si_exc1.save

     init_run     :      0.18s CPU      0.58s WALL (       1 calls)
     electrons    :      0.53s CPU      1.44s WALL (       1 calls)

     Called by init_run:
     wfcinit      :      0.06s CPU      0.19s WALL (       1 calls)
     potinit      :      0.01s CPU      0.02s WALL (       1 calls)

     Called by electrons:
     c_bands      :      0.43s CPU      1.19s WALL (       6 calls)
     sum_band     :      0.07s CPU      0.17s WALL (       6 calls)
     v_of_rho     :      0.02s CPU      0.05s WALL (       6 calls)
     mix_rho      :      0.00s CPU      0.01s WALL (       6 calls)

     Called by c_bands:
     init_us_2    :      0.03s CPU      0.05s WALL (     364 calls)
     cegterg      :      0.40s CPU      1.12s WALL (     168 calls)

     Called by *egterg:
     h_psi        :      0.32s CPU      0.86s WALL (     516 calls)
     g_psi        :      0.00s CPU      0.01s WALL (     320 calls)
     cdiaghg      :      0.05s CPU      0.18s WALL (     460 calls)

     Called by h_psi:
     add_vuspsi   :      0.02s CPU      0.07s WALL (     516 calls)

     General routines
     calbec       :      0.02s CPU      0.05s WALL (     516 calls)
     fft          :      0.01s CPU      0.07s WALL (      67 calls)
     fftw         :      0.24s CPU      0.65s WALL (    4626 calls)
     davcio       :      0.00s CPU      0.00s WALL (      28 calls)

     Parallel routines
     fft_scatter  :      0.05s CPU      0.10s WALL (    4693 calls)

     PWSCF        :     1.39s CPU         3.07s WALL


   This run was terminated on:  14: 9:42  24May2022            

=------------------------------------------------------------------------------=
   JOB DONE.
=------------------------------------------------------------------------------=
