
     Program PWSCF v.5.1 starts on 24May2022 at 14: 9:58 

     This program is part of the open-source Quantum ESPRESSO suite
     for quantum simulation of materials; please cite
         "P. Giannozzi et al., J. Phys.:Condens. Matter 21 395502 (2009);
          URL http://www.quantum-espresso.org", 
     in publications or presentations arising from this work. More details at
     http://www.quantum-espresso.org/quote

     Parallel version (MPI), running on     1 processors
     Waiting for input...
     Reading input from standard input

     Current dimensions of program PWSCF are:
     Max number of different atomic species (ntypx) = 10
     Max number of k-points (npk) =  40000
     Max angular momentum in pseudopotentials (lmaxx) =  3

     Subspace diagonalization in iterative solution of the eigenvalue problem:
     a serial algorithm will be used


     G-vector sticks info
     --------------------
     sticks:   dense  smooth     PW     G-vecs:    dense   smooth      PW
     Sum         349     349    121                 4279     4279     869



     bravais-lattice index     =            2
     lattice parameter (alat)  =      10.0000  a.u.
     unit-cell volume          =     250.0000 (a.u.)^3
     number of atoms/cell      =            2
     number of atomic types    =            1
     number of electrons       =         8.00
     number of Kohn-Sham states=            4
     kinetic-energy cutoff     =      25.0000  Ry
     charge density cutoff     =     100.0000  Ry
     convergence threshold     =      1.0E-06
     mixing beta               =       0.7000
     number of iterations used =            8  plain     mixing
     Exchange-correlation      =  SLA  PW   PBE  PBE ( 1  4  3  4 0)

     celldm(1)=  10.000000  celldm(2)=   0.000000  celldm(3)=   0.000000
     celldm(4)=   0.000000  celldm(5)=   0.000000  celldm(6)=   0.000000

     crystal axes: (cart. coord. in units of alat)
               a(1) = (  -0.500000   0.000000   0.500000 )  
               a(2) = (   0.000000   0.500000   0.500000 )  
               a(3) = (  -0.500000   0.500000   0.000000 )  

     reciprocal axes: (cart. coord. in units 2 pi/alat)
               b(1) = ( -1.000000 -1.000000  1.000000 )  
               b(2) = (  1.000000  1.000000  1.000000 )  
               b(3) = ( -1.000000  1.000000 -1.000000 )  


     PseudoPot. # 1 for Si read from file:
     ./Si.pbe-rrkj.UPF
     MD5 check sum: cf7ab5690cd9a85b22c4813f7e365554
     Pseudo is Norm-conserving, Zval =  4.0
     Generated by new atomic code, or converted to UPF format
     Using radial grid of  883 points,  3 beta functions with: 
                l(1) =   0
                l(2) =   0
                l(3) =   1

     atomic species   valence    mass     pseudopotential
        Si             4.00    28.08600     Si( 1.00)

     48 Sym. Ops., with inversion, found (24 have fractional translation)



   Cartesian axes

     site n.     atom                  positions (alat units)
         1           Si  tau(   1) = (   0.0000000   0.0000000   0.0000000  )
         2           Si  tau(   2) = (   0.2500000   0.2500000   0.2500000  )

     number of k points=    28
                       cart. coord. in units 2pi/alat
        k(    1) = (  -0.0833333   0.0833333   0.0833333), wk =   0.0185185
        k(    2) = (  -0.2500000   0.2500000  -0.0833333), wk =   0.0555556
        k(    3) = (  -0.4166667   0.4166667  -0.2500000), wk =   0.0555556
        k(    4) = (   0.4166667  -0.4166667   0.5833333), wk =   0.0555556
        k(    5) = (   0.2500000  -0.2500000   0.4166667), wk =   0.0555556
        k(    6) = (   0.0833333  -0.0833333   0.2500000), wk =   0.0555556
        k(    7) = (  -0.0833333   0.4166667   0.0833333), wk =   0.0555556
        k(    8) = (  -0.2500000   0.5833333  -0.0833333), wk =   0.1111111
        k(    9) = (   0.5833333  -0.2500000   0.7500000), wk =   0.1111111
        k(   10) = (   0.4166667  -0.0833333   0.5833333), wk =   0.1111111
        k(   11) = (   0.2500000   0.0833333   0.4166667), wk =   0.1111111
        k(   12) = (  -0.0833333   0.7500000   0.0833333), wk =   0.0555556
        k(   13) = (   0.7500000  -0.0833333   0.9166667), wk =   0.1111111
        k(   14) = (   0.5833333   0.0833333   0.7500000), wk =   0.1111111
        k(   15) = (   0.4166667   0.2500000   0.5833333), wk =   0.1111111
        k(   16) = (  -0.0833333  -0.9166667   0.0833333), wk =   0.0555556
        k(   17) = (  -0.2500000  -0.7500000  -0.0833333), wk =   0.1111111
        k(   18) = (  -0.0833333  -0.5833333   0.0833333), wk =   0.0555556
        k(   19) = (  -0.2500000   0.2500000   0.2500000), wk =   0.0185185
        k(   20) = (  -0.4166667   0.4166667   0.0833333), wk =   0.0555556
        k(   21) = (   0.4166667  -0.4166667   0.9166667), wk =   0.0555556
        k(   22) = (   0.2500000  -0.2500000   0.7500000), wk =   0.0555556
        k(   23) = (  -0.2500000   0.5833333   0.2500000), wk =   0.0555556
        k(   24) = (   0.5833333  -0.2500000   1.0833333), wk =   0.1111111
        k(   25) = (   0.4166667  -0.0833333   0.9166667), wk =   0.1111111
        k(   26) = (  -0.2500000  -1.0833333   0.2500000), wk =   0.0555556
        k(   27) = (  -0.4166667   0.4166667   0.4166667), wk =   0.0185185
        k(   28) = (   0.4166667  -0.4166667   1.2500000), wk =   0.0555556

     Dense  grid:     4279 G-vectors     FFT dimensions: (  24,  24,  24)

     Largest allocated arrays     est. size (Mb)     dimensions
        Kohn-Sham Wavefunctions         0.03 Mb     (     536,    4)
        NL pseudopotentials             0.08 Mb     (     536,   10)
        Each V/rho on FFT grid          0.21 Mb     (   13824)
        Each G-vector array             0.03 Mb     (    4279)
        G-vector shells                 0.00 Mb     (      86)
     Largest temporary arrays     est. size (Mb)     dimensions
        Auxiliary wavefunctions         0.13 Mb     (     536,   16)
        Each subspace H/S matrix        0.00 Mb     (      16,   16)
        Each <psi_i|beta_j> matrix      0.00 Mb     (      10,    4)
        Arrays for rho mixing           1.69 Mb     (   13824,    8)

     Initial potential from superposition of free atoms

     starting charge    7.99889, renormalised to    8.00000
     Starting wfc are    8 randomized atomic wfcs

     total cpu time spent up to now is        1.4 secs

     per-process dynamical memory:     7.2 Mb

     Self-consistent Calculation

     iteration #  1     ecut=    25.00 Ry     beta=0.70
     Davidson diagonalization with overlap
     ethr =  1.00E-02,  avg # of iterations =  2.0

     Threshold (ethr) on eigenvalues was too large:
     Diagonalizing with lowered threshold

     Davidson diagonalization with overlap
     ethr =  8.34E-04,  avg # of iterations =  1.0

     total cpu time spent up to now is        2.9 secs

     total energy              =     -15.72917607 Ry
     Harris-Foulkes estimate   =     -15.74602479 Ry
     estimated scf accuracy    <       0.06534173 Ry

     iteration #  2     ecut=    25.00 Ry     beta=0.70
     Davidson diagonalization with overlap
     ethr =  8.17E-04,  avg # of iterations =  1.0

     total cpu time spent up to now is        3.3 secs

     total energy              =     -15.73194350 Ry
     Harris-Foulkes estimate   =     -15.73190831 Ry
     estimated scf accuracy    <       0.00282661 Ry

     iteration #  3     ecut=    25.00 Ry     beta=0.70
     Davidson diagonalization with overlap
     ethr =  3.53E-05,  avg # of iterations =  2.8

     total cpu time spent up to now is        4.1 secs

     total energy              =     -15.73248856 Ry
     Harris-Foulkes estimate   =     -15.73251993 Ry
     estimated scf accuracy    <       0.00008687 Ry

     iteration #  4     ecut=    25.00 Ry     beta=0.70
     Davidson diagonalization with overlap
     ethr =  1.09E-06,  avg # of iterations =  2.3

     total cpu time spent up to now is        4.8 secs

     total energy              =     -15.73251460 Ry
     Harris-Foulkes estimate   =     -15.73251697 Ry
     estimated scf accuracy    <       0.00000802 Ry

     iteration #  5     ecut=    25.00 Ry     beta=0.70
     Davidson diagonalization with overlap
     ethr =  1.00E-07,  avg # of iterations =  2.0

     total cpu time spent up to now is        5.4 secs

     End of self-consistent calculation

          k =-0.0833 0.0833 0.0833 (   534 PWs)   bands (ev):

    -5.2840   6.2097   6.9110   6.9110

          k =-0.2500 0.2500-0.0833 (   534 PWs)   bands (ev):

    -4.7726   4.0734   5.5852   6.7009

          k =-0.4167 0.4167-0.2500 (   527 PWs)   bands (ev):

    -3.5892   1.1252   5.1212   6.0217

          k = 0.4167-0.4167 0.5833 (   535 PWs)   bands (ev):

    -2.8064  -0.1288   5.2111   5.6079

          k = 0.2500-0.2500 0.4167 (   531 PWs)   bands (ev):

    -4.0385   2.0339   5.6584   5.7460

          k = 0.0833-0.0833 0.2500 (   535 PWs)   bands (ev):

    -5.0261   5.1374   6.2064   6.4516

          k =-0.0833 0.4167 0.0833 (   536 PWs)   bands (ev):

    -4.5146   3.9500   5.4220   5.4443

          k =-0.2500 0.5833-0.0833 (   529 PWs)   bands (ev):

    -3.5341   2.0190   4.0031   5.0156

          k = 0.5833-0.2500 0.7500 (   531 PWs)   bands (ev):

    -2.2989   0.0853   3.3922   4.7594

          k = 0.4167-0.0833 0.5833 (   528 PWs)   bands (ev):

    -3.1020   1.2604   3.3084   5.2973

          k = 0.2500 0.0833 0.4167 (   531 PWs)   bands (ev):

    -4.2711   3.0256   4.7556   6.0375

          k =-0.0833 0.7500 0.0833 (   529 PWs)   bands (ev):

    -2.7741   1.2024   3.9425   4.3243

          k = 0.7500-0.0833 0.9167 (   519 PWs)   bands (ev):

    -1.4760  -0.2219   3.0072   3.8684

          k = 0.5833 0.0833 0.7500 (   522 PWs)   bands (ev):

    -1.8492   0.0844   2.4968   4.4611

          k = 0.4167 0.2500 0.5833 (   530 PWs)   bands (ev):

    -2.9688   0.4486   4.3780   5.4081

          k =-0.0833-0.9167 0.0833 (   520 PWs)   bands (ev):

    -1.5877  -0.2370   3.6500   4.0952

          k =-0.2500-0.7500-0.0833 (   526 PWs)   bands (ev):

    -2.5855   0.9533   3.3784   4.2330

          k =-0.0833-0.5833 0.0833 (   530 PWs)   bands (ev):

    -3.7586   2.6342   4.5426   4.7741

          k =-0.2500 0.2500 0.2500 (   531 PWs)   bands (ev):

    -4.5252   3.0155   6.2596   6.2596

          k =-0.4167 0.4167 0.0833 (   526 PWs)   bands (ev):

    -3.7930   2.0889   3.9678   6.0868

          k = 0.4167-0.4167 0.9167 (   530 PWs)   bands (ev):

    -2.5069   0.5908   2.7565   5.2314

          k = 0.2500-0.2500 0.7500 (   529 PWs)   bands (ev):

    -2.4563   0.5088   3.2928   4.7072

          k =-0.2500 0.5833 0.2500 (   531 PWs)   bands (ev):

    -3.3328   1.2114   4.5201   5.1080

          k = 0.5833-0.2500 1.0833 (   526 PWs)   bands (ev):

    -2.2451   0.5134   2.8571   4.2209

          k = 0.4167-0.0833 0.9167 (   521 PWs)   bands (ev):

    -1.3426  -0.2302   2.6438   3.4871

          k =-0.2500-1.0833 0.2500 (   524 PWs)   bands (ev):

    -1.5659  -0.1597   2.5081   4.4986

          k =-0.4167 0.4167 0.4167 (   529 PWs)   bands (ev):

    -3.2211   0.3079   5.8555   5.8555

          k = 0.4167-0.4167 1.2500 (   527 PWs)   bands (ev):

    -2.5556   0.0102   3.9157   5.3710

     highest occupied level (ev):     6.9110

!    total energy              =     -15.73251586 Ry
     Harris-Foulkes estimate   =     -15.73251590 Ry
     estimated scf accuracy    <       0.00000013 Ry

     The total energy is the sum of the following terms:

     one-electron contribution =       5.37317811 Ry
     hartree contribution      =       1.02870100 Ry
     xc contribution           =      -4.89664121 Ry
     ewald contribution        =     -17.23775376 Ry

     convergence has been achieved in   5 iterations

     Writing output data file Si_exc1.save

     init_run     :      0.56s CPU      1.11s WALL (       1 calls)
     electrons    :      3.06s CPU      4.03s WALL (       1 calls)

     Called by init_run:
     wfcinit      :      0.32s CPU      0.59s WALL (       1 calls)
     potinit      :      0.03s CPU      0.06s WALL (       1 calls)

     Called by electrons:
     c_bands      :      2.47s CPU      3.38s WALL (       6 calls)
     sum_band     :      0.47s CPU      0.48s WALL (       6 calls)
     v_of_rho     :      0.11s CPU      0.19s WALL (       6 calls)
     mix_rho      :      0.01s CPU      0.01s WALL (       6 calls)

     Called by c_bands:
     init_us_2    :      0.10s CPU      0.16s WALL (     364 calls)
     cegterg      :      2.38s CPU      3.24s WALL (     168 calls)

     Called by *egterg:
     h_psi        :      2.36s CPU      3.36s WALL (     509 calls)
     g_psi        :      0.01s CPU      0.02s WALL (     313 calls)
     cdiaghg      :      0.06s CPU      0.09s WALL (     453 calls)

     Called by h_psi:
     add_vuspsi   :      0.08s CPU      0.09s WALL (     509 calls)

     General routines
     calbec       :      0.09s CPU      0.13s WALL (     509 calls)
     fft          :      0.07s CPU      0.13s WALL (      67 calls)
     fftw         :      2.30s CPU      3.16s WALL (    4632 calls)
     davcio       :      0.00s CPU      0.00s WALL (      28 calls)

     Parallel routines
     fft_scatter  :      0.16s CPU      0.22s WALL (    4699 calls)

     PWSCF        :     4.33s CPU         6.66s WALL


   This run was terminated on:  14:10: 4  24May2022            

=------------------------------------------------------------------------------=
   JOB DONE.
=------------------------------------------------------------------------------=
