
     Program PWSCF v.5.1 starts on  6Mar2023 at 15: 4:40 

     This program is part of the open-source Quantum ESPRESSO suite
     for quantum simulation of materials; please cite
         "P. Giannozzi et al., J. Phys.:Condens. Matter 21 395502 (2009);
          URL http://www.quantum-espresso.org", 
     in publications or presentations arising from this work. More details at
     http://www.quantum-espresso.org/quote

     Parallel version (MPI), running on     1 processors
     Waiting for input...
     Reading input from standard input

     Current dimensions of program PWSCF are:
     Max number of different atomic species (ntypx) = 10
     Max number of k-points (npk) =  40000
     Max angular momentum in pseudopotentials (lmaxx) =  3
               file Si.pbe-mt_fhi.UPF: wavefunction(s)  4f renormalized

     Subspace diagonalization in iterative solution of the eigenvalue problem:
     a serial algorithm will be used


     G-vector sticks info
     --------------------
     sticks:   dense  smooth     PW     G-vecs:    dense   smooth      PW
     Sum         733     733    211                12939    12939    2109



     bravais-lattice index     =            2
     lattice parameter (alat)  =      10.2623  a.u.
     unit-cell volume          =     270.1967 (a.u.)^3
     number of atoms/cell      =            2
     number of atomic types    =            1
     number of electrons       =         8.00
     number of Kohn-Sham states=           10
     kinetic-energy cutoff     =      50.0000  Ry
     charge density cutoff     =     200.0000  Ry
     convergence threshold     =      1.6E-09
     mixing beta               =       0.3000
     number of iterations used =            8  plain     mixing
     Exchange-correlation      = PBE ( 1  4  3  4 0)

     celldm(1)=  10.262347  celldm(2)=   0.000000  celldm(3)=   0.000000
     celldm(4)=   0.000000  celldm(5)=   0.000000  celldm(6)=   0.000000

     crystal axes: (cart. coord. in units of alat)
               a(1) = (  -0.500000   0.000000   0.500000 )  
               a(2) = (   0.000000   0.500000   0.500000 )  
               a(3) = (  -0.500000   0.500000   0.000000 )  

     reciprocal axes: (cart. coord. in units 2 pi/alat)
               b(1) = ( -1.000000 -1.000000  1.000000 )  
               b(2) = (  1.000000  1.000000  1.000000 )  
               b(3) = ( -1.000000  1.000000 -1.000000 )  


     PseudoPot. # 1 for Si read from file:
     /home/acedemo/psudo/Si.pbe-mt_fhi.UPF
     MD5 check sum: 259057c2adf9952f9ced37ae3d9e311d
     Pseudo is Norm-conserving, Zval =  4.0
     Generated using FHI98PP, converted with fhi2upf.x v.5.0.2
     Using radial grid of  495 points,  3 beta functions with: 
                l(1) =   0
                l(2) =   1
                l(3) =   3

     atomic species   valence    mass     pseudopotential
        Si             4.00    28.08550     Si( 1.00)

     48 Sym. Ops., with inversion, found (24 have fractional translation)



   Cartesian axes

     site n.     atom                  positions (alat units)
         1           Si  tau(   1) = (   0.0000000   0.0000000   0.0000000  )
         2           Si  tau(   2) = (   0.2500000   0.2500000   0.2500000  )

     number of k points=    10  Marzari-Vanderbilt smearing, width (Ry)=  0.0500
                       cart. coord. in units 2pi/alat
        k(    1) = (   0.0000000   0.0000000   0.0000000), wk =   0.0160000
        k(    2) = (  -0.2000000   0.2000000  -0.2000000), wk =   0.1280000
        k(    3) = (  -0.4000000   0.4000000  -0.4000000), wk =   0.1280000
        k(    4) = (   0.0000000   0.4000000   0.0000000), wk =   0.0960000
        k(    5) = (  -0.2000000   0.6000000  -0.2000000), wk =   0.3840000
        k(    6) = (   0.6000000  -0.2000000   0.6000000), wk =   0.3840000
        k(    7) = (   0.4000000   0.0000000   0.4000000), wk =   0.1920000
        k(    8) = (   0.0000000   0.8000000   0.0000000), wk =   0.0960000
        k(    9) = (   0.8000000   0.0000000   0.8000000), wk =   0.1920000
        k(   10) = (   0.6000000  -0.2000000   1.0000000), wk =   0.3840000

     Dense  grid:    12939 G-vectors     FFT dimensions: (  36,  36,  36)

     Largest allocated arrays     est. size (Mb)     dimensions
        Kohn-Sham Wavefunctions         0.25 Mb     (    1639,   10)
        NL pseudopotentials             0.55 Mb     (    1639,   22)
        Each V/rho on FFT grid          0.71 Mb     (   46656)
        Each G-vector array             0.10 Mb     (   12939)
        G-vector shells                 0.00 Mb     (     180)
     Largest temporary arrays     est. size (Mb)     dimensions
        Auxiliary wavefunctions         1.00 Mb     (    1639,   40)
        Each subspace H/S matrix        0.02 Mb     (      40,   40)
        Each <psi_i|beta_j> matrix      0.00 Mb     (      22,   10)
        Arrays for rho mixing           5.70 Mb     (   46656,    8)

     Initial potential from superposition of free atoms

     starting charge    7.99859, renormalised to    8.00000
     Starting wfc are   32 randomized atomic wfcs

     total cpu time spent up to now is        0.9 secs

     per-process dynamical memory:    15.9 Mb

     Self-consistent Calculation

     iteration #  1     ecut=    50.00 Ry     beta=0.30
     Davidson diagonalization with overlap
     ethr =  1.00E-02,  avg # of iterations =  2.3

     Threshold (ethr) on eigenvalues was too large:
     Diagonalizing with lowered threshold

     Davidson diagonalization with overlap
     ethr =  7.28E-04,  avg # of iterations =  1.0

     total cpu time spent up to now is        2.0 secs

     total energy              =     -15.75892437 Ry
     Harris-Foulkes estimate   =     -15.76661114 Ry
     estimated scf accuracy    <       0.05867608 Ry

     iteration #  2     ecut=    50.00 Ry     beta=0.30
     Davidson diagonalization with overlap
     ethr =  7.33E-04,  avg # of iterations =  1.0

     total cpu time spent up to now is        2.5 secs

     total energy              =     -15.75446280 Ry
     Harris-Foulkes estimate   =     -15.75941462 Ry
     estimated scf accuracy    <       0.02471280 Ry

     iteration #  3     ecut=    50.00 Ry     beta=0.30
     Davidson diagonalization with overlap
     ethr =  3.09E-04,  avg # of iterations =  1.0

     total cpu time spent up to now is        3.1 secs

     total energy              =     -15.75586201 Ry
     Harris-Foulkes estimate   =     -15.75587383 Ry
     estimated scf accuracy    <       0.00038480 Ry

     iteration #  4     ecut=    50.00 Ry     beta=0.30
     Davidson diagonalization with overlap
     ethr =  4.81E-06,  avg # of iterations =  3.4

     total cpu time spent up to now is        3.7 secs

     total energy              =     -15.75590375 Ry
     Harris-Foulkes estimate   =     -15.75590980 Ry
     estimated scf accuracy    <       0.00001750 Ry

     iteration #  5     ecut=    50.00 Ry     beta=0.30
     Davidson diagonalization with overlap
     ethr =  2.19E-07,  avg # of iterations =  2.0

     total cpu time spent up to now is        4.3 secs

     total energy              =     -15.75590745 Ry
     Harris-Foulkes estimate   =     -15.75590723 Ry
     estimated scf accuracy    <       0.00000073 Ry

     iteration #  6     ecut=    50.00 Ry     beta=0.30
     Davidson diagonalization with overlap
     ethr =  9.07E-09,  avg # of iterations =  2.0

     total cpu time spent up to now is        5.1 secs

     total energy              =     -15.75590774 Ry
     Harris-Foulkes estimate   =     -15.75590771 Ry
     estimated scf accuracy    <       0.00000011 Ry

     iteration #  7     ecut=    50.00 Ry     beta=0.30
     Davidson diagonalization with overlap
     ethr =  1.36E-09,  avg # of iterations =  2.0

     total cpu time spent up to now is        5.7 secs

     End of self-consistent calculation

          k = 0.0000 0.0000 0.0000 (  1639 PWs)   bands (ev):

    -5.7360   6.2371   6.2371   6.2371   8.8048   8.8048   8.8048   9.5070
    13.9777  13.9777

          k =-0.2000 0.2000-0.2000 (  1606 PWs)   bands (ev):

    -5.2178   3.2249   5.6576   5.6576   8.4345   9.6045   9.6045  12.2123
    13.3046  13.3046

          k =-0.4000 0.4000-0.4000 (  1616 PWs)   bands (ev):

    -3.8532  -0.0390   5.1092   5.1092   7.8322   9.6607   9.6607  14.0800
    15.2332  15.2332

          k = 0.0000 0.4000 0.0000 (  1607 PWs)   bands (ev):

    -5.0394   3.6069   4.7490   4.7490   7.7013  10.1121  11.1310  11.1310
    13.2462  14.7512

          k =-0.2000 0.6000-0.2000 (  1619 PWs)   bands (ev):

    -3.8965   0.9240   3.6120   4.2401   8.0128  10.3215  11.1523  11.6763
    16.3619  16.6223

          k = 0.6000-0.2000 0.6000 (  1596 PWs)   bands (ev):

    -3.0112  -0.4696   2.8031   4.5225   8.2919  10.8274  11.0446  13.7956
    14.5920  14.6844

          k = 0.4000 0.0000 0.4000 (  1610 PWs)   bands (ev):

    -4.3851   1.7567   3.2366   5.3911   9.1173  10.2340  10.5430  11.9486
    12.3705  16.9466

          k = 0.0000 0.8000 0.0000 (  1624 PWs)   bands (ev):

    -3.0197   0.0537   3.5410   3.5410   6.8214   7.5520  14.7365  14.7365
    17.0601  17.3103

          k = 0.8000 0.0000 0.8000 (  1622 PWs)   bands (ev):

    -1.8136  -1.2079   2.1725   3.6598   7.2696   9.3896  14.3259  14.8837
    14.9179  15.3156

          k = 0.6000-0.2000 1.0000 (  1616 PWs)   bands (ev):

    -2.5801  -0.3301   2.2573   3.2449   9.6326  10.0144  10.6533  14.0112
    14.6839  16.4008

     the Fermi energy is     6.1817 ev

!    total energy              =     -15.75590777 Ry
     Harris-Foulkes estimate   =     -15.75590776 Ry
     estimated scf accuracy    <          1.6E-09 Ry

     The total energy is the sum of the following terms:

     one-electron contribution =       4.75557747 Ry
     hartree contribution      =       1.10209623 Ry
     xc contribution           =      -4.82124068 Ry
     ewald contribution        =     -16.79708774 Ry
     smearing contrib. (-TS)   =       0.00474695 Ry

     convergence has been achieved in   7 iterations

     Forces acting on atoms (Ry/au):

     atom    1 type  1   force =     0.00000000    0.00000000   -0.00000000
     atom    2 type  1   force =     0.00000000    0.00000000    0.00000000

     Total force =     0.000000     Total SCF correction =     0.000000


     entering subroutine stress ...

          total   stress  (Ry/bohr**3)                   (kbar)     P=   17.55
   0.00011931   0.00000000  -0.00000000         17.55      0.00     -0.00
   0.00000000   0.00011931   0.00000000          0.00     17.55      0.00
  -0.00000000   0.00000000   0.00011931         -0.00      0.00     17.55


     Writing output data file Si.save

     init_run     :      0.78s CPU      0.82s WALL (       1 calls)
     electrons    :      4.65s CPU      4.87s WALL (       1 calls)
     forces       :      0.05s CPU      0.07s WALL (       1 calls)
     stress       :      0.45s CPU      0.46s WALL (       1 calls)

     Called by init_run:
     wfcinit      :      0.66s CPU      0.68s WALL (       1 calls)
     potinit      :      0.04s CPU      0.04s WALL (       1 calls)

     Called by electrons:
     c_bands      :      3.56s CPU      3.69s WALL (       8 calls)
     sum_band     :      0.86s CPU      0.92s WALL (       8 calls)
     v_of_rho     :      0.24s CPU      0.27s WALL (       8 calls)
     mix_rho      :      0.01s CPU      0.01s WALL (       8 calls)

     Called by c_bands:
     init_us_2    :      0.19s CPU      0.20s WALL (     190 calls)
     cegterg      :      3.42s CPU      3.55s WALL (      80 calls)

     Called by *egterg:
     h_psi        :      3.66s CPU      3.80s WALL (     237 calls)
     g_psi        :      0.01s CPU      0.01s WALL (     147 calls)
     cdiaghg      :      0.04s CPU      0.05s WALL (     217 calls)

     Called by h_psi:
     add_vuspsi   :      0.10s CPU      0.11s WALL (     237 calls)

     General routines
     calbec       :      0.14s CPU      0.14s WALL (     257 calls)
     fft          :      0.10s CPU      0.12s WALL (      97 calls)
     fftw         :      3.87s CPU      4.04s WALL (    5004 calls)
     davcio       :      0.00s CPU      0.00s WALL (      10 calls)

     Parallel routines
     fft_scatter  :      0.11s CPU      0.12s WALL (    5101 calls)

     PWSCF        :     6.00s CPU         6.32s WALL


   This run was terminated on:  15: 4:46   6Mar2023            

=------------------------------------------------------------------------------=
   JOB DONE.
=------------------------------------------------------------------------------=
