
     Program PWSCF v.5.1 starts on 12Feb2023 at 21:19:52 

     This program is part of the open-source Quantum ESPRESSO suite
     for quantum simulation of materials; please cite
         "P. Giannozzi et al., J. Phys.:Condens. Matter 21 395502 (2009);
          URL http://www.quantum-espresso.org", 
     in publications or presentations arising from this work. More details at
     http://www.quantum-espresso.org/quote

     Parallel version (MPI), running on     1 processors
     Waiting for input...
     Reading input from standard input

     Current dimensions of program PWSCF are:
     Max number of different atomic species (ntypx) = 10
     Max number of k-points (npk) =  40000
     Max angular momentum in pseudopotentials (lmaxx) =  3

     Atomic positions and unit cell read from directory:
     ./out/Si.save/

               file Si.pbe-mt_fhi.UPF: wavefunction(s)  4f renormalized

     Subspace diagonalization in iterative solution of the eigenvalue problem:
     a serial algorithm will be used


     G-vector sticks info
     --------------------
     sticks:   dense  smooth     PW     G-vecs:    dense   smooth      PW
     Sum         733     733    211                12939    12939    2109



     bravais-lattice index     =            2
     lattice parameter (alat)  =      10.2623  a.u.
     unit-cell volume          =     270.1967 (a.u.)^3
     number of atoms/cell      =            2
     number of atomic types    =            1
     number of electrons       =         8.00
     number of Kohn-Sham states=           10
     kinetic-energy cutoff     =      50.0000  Ry
     charge density cutoff     =     200.0000  Ry
     Exchange-correlation      = PBE ( 1  4  3  4 0)

     celldm(1)=  10.262347  celldm(2)=   0.000000  celldm(3)=   0.000000
     celldm(4)=   0.000000  celldm(5)=   0.000000  celldm(6)=   0.000000

     crystal axes: (cart. coord. in units of alat)
               a(1) = (  -0.500000   0.000000   0.500000 )  
               a(2) = (   0.000000   0.500000   0.500000 )  
               a(3) = (  -0.500000   0.500000   0.000000 )  

     reciprocal axes: (cart. coord. in units 2 pi/alat)
               b(1) = ( -1.000000 -1.000000  1.000000 )  
               b(2) = (  1.000000  1.000000  1.000000 )  
               b(3) = ( -1.000000  1.000000 -1.000000 )  


     PseudoPot. # 1 for Si read from file:
     /home/acedemo/psudo/Si.pbe-mt_fhi.UPF
     MD5 check sum: 259057c2adf9952f9ced37ae3d9e311d
     Pseudo is Norm-conserving, Zval =  4.0
     Generated using FHI98PP, converted with fhi2upf.x v.5.0.2
     Using radial grid of  495 points,  3 beta functions with: 
                l(1) =   0
                l(2) =   1
                l(3) =   3

     atomic species   valence    mass     pseudopotential
        Si             4.00    28.08550     Si( 1.00)

     48 Sym. Ops., with inversion, found (24 have fractional translation)



   Cartesian axes

     site n.     atom                  positions (alat units)
         1           Si  tau(   1) = (   0.0000000   0.0000000   0.0000000  )
         2           Si  tau(   2) = (   0.2500000   0.2500000   0.2500000  )

     number of k points=    51  Marzari-Vanderbilt smearing, width (Ry)=  0.0500
                       cart. coord. in units 2pi/alat
        k(    1) = (   0.5000000   0.5000000   0.5000000), wk =   0.0000000
        k(    2) = (   0.4500000   0.4500000   0.4500000), wk =   0.0014779
        k(    3) = (   0.4000000   0.4000000   0.4000000), wk =   0.0029558
        k(    4) = (   0.3500000   0.3500000   0.3500000), wk =   0.0044337
        k(    5) = (   0.3000000   0.3000000   0.3000000), wk =   0.0059116
        k(    6) = (   0.2500000   0.2500000   0.2500000), wk =   0.0073895
        k(    7) = (   0.2000000   0.2000000   0.2000000), wk =   0.0088674
        k(    8) = (   0.1500000   0.1500000   0.1500000), wk =   0.0103453
        k(    9) = (   0.1000000   0.1000000   0.1000000), wk =   0.0118232
        k(   10) = (   0.0500000   0.0500000   0.0500000), wk =   0.0133011
        k(   11) = (   0.0000000   0.0000000   0.0000000), wk =   0.0147790
        k(   12) = (   0.0000000   0.1000000   0.0000000), wk =   0.0168691
        k(   13) = (   0.0000000   0.2000000   0.0000000), wk =   0.0189591
        k(   14) = (   0.0000000   0.3000000   0.0000000), wk =   0.0210492
        k(   15) = (   0.0000000   0.4000000   0.0000000), wk =   0.0231392
        k(   16) = (   0.0000000   0.5000000   0.0000000), wk =   0.0252293
        k(   17) = (   0.0000000   0.6000000   0.0000000), wk =   0.0273194
        k(   18) = (   0.0000000   0.7000000   0.0000000), wk =   0.0294094
        k(   19) = (   0.0000000   0.8000000   0.0000000), wk =   0.0314995
        k(   20) = (   0.0000000   0.9000000   0.0000000), wk =   0.0335896
        k(   21) = (   0.0000000   1.0000000   0.0000000), wk =   0.0356796
        k(   22) = (   0.0000000   0.9750000   0.0750000), wk =   0.0370621
        k(   23) = (   0.0000000   0.9500000   0.1500000), wk =   0.0384445
        k(   24) = (  -0.0000000   0.9250000   0.2250000), wk =   0.0398270
        k(   25) = (  -0.0000000   0.9000000   0.3000000), wk =   0.0412094
        k(   26) = (   0.0000000   0.8750000   0.3750000), wk =   0.0425919
        k(   27) = (   0.0000000   0.8500000   0.4500000), wk =   0.0439743
        k(   28) = (   0.0000000   0.8250000   0.5250000), wk =   0.0453568
        k(   29) = (  -0.0000000   0.8000000   0.6000000), wk =   0.0467392
        k(   30) = (  -0.0000000   0.7750000   0.6750000), wk =   0.0481217
        k(   31) = (   0.0000000   0.7500000   0.7500000), wk =   0.0495041
        k(   32) = (   0.0000000   0.7250000   0.7750000), wk =   0.0500266
        k(   33) = (   0.0000000   0.7000000   0.8000000), wk =   0.0505491
        k(   34) = (   0.0000000   0.6750000   0.8250000), wk =   0.0510717
        k(   35) = (   0.0000000   0.6500000   0.8500000), wk =   0.0515942
        k(   36) = (   0.0000000   0.6250000   0.8750000), wk =   0.0521167
        k(   37) = (   0.0000000   0.6000000   0.9000000), wk =   0.0526392
        k(   38) = (   0.0000000   0.5750000   0.9250000), wk =   0.0531617
        k(   39) = (   0.0000000   0.5500000   0.9500000), wk =   0.0536842
        k(   40) = (   0.0000000   0.5250000   0.9750000), wk =   0.0542067
        k(   41) = (   0.0000000   0.5000000   1.0000000), wk =   0.0547293
        k(   42) = (   0.0000000   0.4500000   0.9000000), wk =   0.0574942
        k(   43) = (  -0.0000000   0.4000000   0.8000000), wk =   0.0602591
        k(   44) = (  -0.0000000   0.3500000   0.7000000), wk =   0.0630239
        k(   45) = (  -0.0000000   0.3000000   0.6000000), wk =   0.0657888
        k(   46) = (   0.0000000   0.2500000   0.5000000), wk =   0.0685537
        k(   47) = (   0.0000000   0.2000000   0.4000000), wk =   0.0713186
        k(   48) = (   0.0000000   0.1500000   0.3000000), wk =   0.0740835
        k(   49) = (  -0.0000000   0.1000000   0.2000000), wk =   0.0768484
        k(   50) = (  -0.0000000   0.0500000   0.1000000), wk =   0.0796133
        k(   51) = (   0.0000000   0.0000000   0.0000000), wk =   0.0823782

     Dense  grid:    12939 G-vectors     FFT dimensions: (  36,  36,  36)

     Largest allocated arrays     est. size (Mb)     dimensions
        Kohn-Sham Wavefunctions         0.25 Mb     (    1639,   10)
        NL pseudopotentials             0.55 Mb     (    1639,   22)
        Each V/rho on FFT grid          0.71 Mb     (   46656)
        Each G-vector array             0.10 Mb     (   12939)
        G-vector shells                 0.00 Mb     (     180)
     Largest temporary arrays     est. size (Mb)     dimensions
        Auxiliary wavefunctions         1.00 Mb     (    1639,   40)
        Each subspace H/S matrix        0.02 Mb     (      40,   40)
        Each <psi_i|beta_j> matrix      0.00 Mb     (      22,   10)

     The potential is recalculated from file :
     ./out/Si.save/charge-density.dat

     Starting wfc are   32 randomized atomic wfcs

     Band Structure Calculation
     Davidson diagonalization with overlap

     ethr =  2.00E-11,  avg # of iterations = 16.5

     total cpu time spent up to now is       26.1 secs

     End of band structure calculation

          k = 0.5000 0.5000 0.5000 (  1622 PWs)   bands (ev):

    -3.4012  -0.7376   5.0373   5.0373   7.7500   9.5854   9.5854  13.9689
    16.8057  16.8057

          k = 0.4500 0.4500 0.4500 (  1610 PWs)   bands (ev):

    -3.5355  -0.5415   5.0553   5.0553   7.7707   9.6057   9.6057  14.0002
    16.1108  16.1108

          k = 0.4000 0.4000 0.4000 (  1616 PWs)   bands (ev):

    -3.8533  -0.0390   5.1092   5.1092   7.8322   9.6607   9.6607  14.0801
    15.2331  15.2331

          k = 0.3500 0.3500 0.3500 (  1610 PWs)   bands (ev):

    -4.2309   0.6443   5.1985   5.1985   7.9334   9.7302   9.7302  14.1269
    14.4592  14.4592

          k = 0.3000 0.3000 0.3000 (  1615 PWs)   bands (ev):

    -4.6015   1.4381   5.3220   5.3220   8.0717   9.7765   9.7765  13.8235
    13.8457  13.8457

          k = 0.2500 0.2500 0.2500 (  1618 PWs)   bands (ev):

    -4.9351   2.3064   5.4770   5.4770   8.2420   9.7475   9.7475  13.0826
    13.4484  13.4484

          k = 0.2000 0.2000 0.2000 (  1606 PWs)   bands (ev):

    -5.2178   3.2248   5.6575   5.6575   8.4344   9.6044   9.6044  12.2122
    13.3045  13.3045

          k = 0.1500 0.1500 0.1500 (  1600 PWs)   bands (ev):

    -5.4424   4.1671   5.8519   5.8519   8.6311   9.3642   9.3642  11.3147
    13.3907  13.3907

          k = 0.1000 0.1000 0.1000 (  1606 PWs)   bands (ev):

    -5.6049   5.0882   6.0386   6.0386   8.7970   9.0965   9.0965  10.4473
    13.6203  13.6203

          k = 0.0500 0.0500 0.0500 (  1630 PWs)   bands (ev):

    -5.7032   5.8775   6.1817   6.1817   8.8591   8.8856   8.8856   9.7539
    13.8669  13.8669

          k = 0.0000 0.0000 0.0000 (  1639 PWs)   bands (ev):

    -5.7361   6.2370   6.2370   6.2370   8.8047   8.8047   8.8047   9.5069
    13.9776  13.9776

          k = 0.0000 0.1000 0.0000 (  1627 PWs)   bands (ev):

    -5.6922   5.9540   6.0615   6.0615   8.6989   9.0338   9.0338   9.7793
    13.6483  14.0260

          k = 0.0000 0.2000 0.0000 (  1599 PWs)   bands (ev):

    -5.5609   5.2925   5.6608   5.6608   8.4247   9.5940   9.5940  10.3417
    12.9883  14.1712

          k = 0.0000 0.3000 0.0000 (  1607 PWs)   bands (ev):

    -5.3429   4.4782   5.1977   5.1977   8.0682  10.3199  10.3199  10.5995
    12.6900  14.4130

          k = 0.0000 0.4000 0.0000 (  1607 PWs)   bands (ev):

    -5.0395   3.6068   4.7489   4.7489   7.7013  10.1121  11.1310  11.1310
    13.2461  14.7512

          k = 0.0000 0.5000 0.0000 (  1612 PWs)   bands (ev):

    -4.6524   2.7137   4.3468   4.3468   7.3699   9.3679  11.9915  11.9915
    14.1879  15.1855

          k = 0.0000 0.6000 0.0000 (  1620 PWs)   bands (ev):

    -4.1844   1.8158   4.0067   4.0067   7.1018   8.6533  12.8845  12.8845
    15.2290  15.7155

          k = 0.0000 0.7000 0.0000 (  1632 PWs)   bands (ev):

    -3.6387   0.9252   3.7365   3.7365   6.9149   8.0411  13.8015  13.8015
    16.2836  16.3406

          k = 0.0000 0.8000 0.0000 (  1624 PWs)   bands (ev):

    -3.0198   0.0536   3.5409   3.5409   6.8214   7.5520  14.7364  14.7364
    17.0600  17.3103

          k = 0.0000 0.9000 0.0000 (  1608 PWs)   bands (ev):

    -2.3333  -0.7873   3.4227   3.4227   6.8308   7.1897  15.6671  15.6671
    17.8729  17.8840

          k = 0.0000 1.0000 0.0000 (  1604 PWs)   bands (ev):

    -1.5863  -1.5863   3.3831   3.3831   6.9512   6.9512  16.3109  16.3109
    17.2271  17.2271

          k = 0.0000 0.9750 0.0750 (  1618 PWs)   bands (ev):

    -1.7686  -1.3845   3.3101   3.3167   7.0463   7.1317  15.9102  16.1247
    16.9343  17.1621

          k = 0.0000 0.9500 0.1500 (  1622 PWs)   bands (ev):

    -1.9239  -1.1756   3.1147   3.1624   7.3925   7.5472  14.8899  15.6935
    16.4480  17.3024

          k =-0.0000 0.9250 0.2250 (  1622 PWs)   bands (ev):

    -2.0478  -0.9776   2.8556   2.9990   7.9258   8.1332  13.7237  15.0560
    16.0792  17.4538

          k =-0.0000 0.9000 0.3000 (  1623 PWs)   bands (ev):

    -2.1381  -0.8143   2.5854   2.8942   8.5888   8.8386  12.5526  14.3324
    15.7848  17.4232

          k = 0.0000 0.8750 0.3750 (  1614 PWs)   bands (ev):

    -2.1945  -0.7091   2.3380   2.8939   9.3422   9.6197  11.4319  13.6024
    15.5075  17.1635

          k = 0.0000 0.8500 0.4500 (  1612 PWs)   bands (ev):

    -2.2173  -0.6746   2.1339   3.0159  10.1038  10.1564  10.7410  12.9013
    15.2257  16.7531

          k = 0.0000 0.8250 0.5250 (  1611 PWs)   bands (ev):

    -2.2079  -0.7046   1.9853   3.2435   9.2560  10.9828  11.5293  12.2732
    14.9324  16.2529

          k =-0.0000 0.8000 0.6000 (  1614 PWs)   bands (ev):

    -2.1678  -0.7804   1.9000   3.5234   8.4026  11.3536  12.1770  12.5035
    14.6297  15.7078

          k =-0.0000 0.7750 0.6750 (  1621 PWs)   bands (ev):

    -2.0984  -0.8820   1.8825   3.7591   7.7522  10.8843  12.9766  13.5222
    14.3348  15.1558

          k = 0.0000 0.7500 0.7500 (  1624 PWs)   bands (ev):

    -2.0006  -0.9959   1.9350   3.8107   7.4437  10.3653  13.6999  14.2259
    14.4208  14.7600

          k = 0.0000 0.7250 0.7750 (  1616 PWs)   bands (ev):

    -1.9948  -0.9982   1.9397   3.7743   7.4978  10.3692  13.5520  14.1582
    14.3729  15.0235

          k = 0.0000 0.7000 0.8000 (  1621 PWs)   bands (ev):

    -1.9773  -1.0054   1.9536   3.6721   7.6534  10.3808  13.2798  13.7808
    14.6427  15.4028

          k = 0.0000 0.6750 0.8250 (  1620 PWs)   bands (ev):

    -1.9483  -1.0184   1.9768   3.5208   7.8942  10.3998  12.9844  13.3978
    14.9342  15.7854

          k = 0.0000 0.6500 0.8500 (  1616 PWs)   bands (ev):

    -1.9077  -1.0384   2.0090   3.3402   8.2017  10.4257  12.6855  13.0189
    15.2281  16.1554

          k = 0.0000 0.6250 0.8750 (  1616 PWs)   bands (ev):

    -1.8555  -1.0673   2.0503   3.1474   8.5597  10.4573  12.3899  12.6474
    15.5180  16.4977

          k = 0.0000 0.6000 0.9000 (  1613 PWs)   bands (ev):

    -1.7917  -1.1073   2.1005   2.9564   8.9556  10.4930  12.1022  12.2857
    15.8007  16.7884

          k = 0.0000 0.5750 0.9250 (  1615 PWs)   bands (ev):

    -1.7165  -1.1608   2.1593   2.7776   9.3786  10.5290  11.8278  11.9370
    16.0735  16.9885

          k = 0.0000 0.5500 0.9500 (  1615 PWs)   bands (ev):

    -1.6299  -1.2300   2.2264   2.6191   9.8165  10.5578  11.5753  11.6084
    16.3337  17.0538

          k = 0.0000 0.5250 0.9750 (  1615 PWs)   bands (ev):

    -1.5318  -1.3169   2.3016   2.4868  10.2406  10.5629  11.3248  11.3624
    16.5779  16.9775

          k = 0.0000 0.5000 1.0000 (  1628 PWs)   bands (ev):

    -1.4224  -1.4224   2.3845   2.3845  10.5143  10.5143  11.2200  11.2200
    16.8009  16.8009

          k = 0.0000 0.4500 0.9000 (  1616 PWs)   bands (ev):

    -1.9527  -0.9192   2.1861   2.7760  10.1503  10.2137  10.8868  12.4347
    15.7789  17.1290

          k =-0.0000 0.4000 0.8000 (  1616 PWs)   bands (ev):

    -2.5801  -0.3301   2.2572   3.2449   9.6326  10.0144  10.6532  14.0111
    14.6838  16.4007

          k =-0.0000 0.3500 0.7000 (  1618 PWs)   bands (ev):

    -3.2313   0.3441   2.5373   3.7640   9.2084   9.9448  10.4970  13.6323
    15.4962  15.6221

          k =-0.0000 0.3000 0.6000 (  1609 PWs)   bands (ev):

    -3.8506   1.1025   2.9729   4.2981   8.8921  10.0241  10.3909  12.6469
    14.6758  16.9732

          k = 0.0000 0.2500 0.5000 (  1610 PWs)   bands (ev):

    -4.4046   1.9423   3.5242   4.8089   8.6858  10.1145  10.4401  11.7356
    14.0023  16.4259

          k = 0.0000 0.2000 0.4000 (  1613 PWs)   bands (ev):

    -4.8739   2.8580   4.1564   5.2650   8.5871   9.9445  10.8423  10.9027
    13.4458  15.0374

          k = 0.0000 0.1500 0.3000 (  1607 PWs)   bands (ev):

    -5.2472   3.8365   4.8293   5.6499   8.5868   9.6587  10.1539  11.2160
    12.8989  14.2200

          k =-0.0000 0.1000 0.2000 (  1600 PWs)   bands (ev):

    -5.5176   4.8441   5.4835   5.9548   8.6609   9.3336   9.5049  10.7617
    13.0134  13.9891

          k =-0.0000 0.0500 0.1000 (  1623 PWs)   bands (ev):

    -5.6813   5.7730   6.0146   6.1615   8.7584   9.0090   9.0180   9.8859
    13.6400  13.9689

          k = 0.0000 0.0000 0.0000 (  1639 PWs)   bands (ev):

    -5.7361   6.2370   6.2370   6.2370   8.8047   8.8047   8.8047   9.5069
    13.9776  13.9776

     Writing output data file Si.save

     init_run     :      0.16s CPU      0.17s WALL (       1 calls)
     electrons    :     23.63s CPU     24.21s WALL (       1 calls)

     Called by init_run:
     wfcinit      :      0.00s CPU      0.00s WALL (       1 calls)
     potinit      :      0.04s CPU      0.04s WALL (       1 calls)

     Called by electrons:
     c_bands      :     23.63s CPU     24.21s WALL (       1 calls)
     v_of_rho     :      0.03s CPU      0.03s WALL (       1 calls)

     Called by c_bands:
     init_us_2    :      0.08s CPU      0.08s WALL (      51 calls)
     cegterg      :     18.39s CPU     18.84s WALL (      55 calls)

     Called by *egterg:
     h_psi        :     19.81s CPU     20.28s WALL (     947 calls)
     g_psi        :      0.05s CPU      0.05s WALL (     841 calls)
     cdiaghg      :      0.40s CPU      0.41s WALL (     892 calls)

     Called by h_psi:
     add_vuspsi   :      0.54s CPU      0.56s WALL (     947 calls)

     General routines
     calbec       :      0.63s CPU      0.64s WALL (     947 calls)
     fft          :      0.02s CPU      0.02s WALL (      10 calls)
     fftw         :     17.65s CPU     18.07s WALL (   14648 calls)
     davcio       :      0.00s CPU      0.01s WALL (      51 calls)

     Parallel routines
     fft_scatter  :      0.43s CPU      0.44s WALL (   14658 calls)

     PWSCF        :    25.51s CPU        26.31s WALL


   This run was terminated on:  21:20:18  12Feb2023            

=------------------------------------------------------------------------------=
   JOB DONE.
=------------------------------------------------------------------------------=
