
     Program PWSCF v.5.1 starts on 27Mar2023 at  0:50:22 

     This program is part of the open-source Quantum ESPRESSO suite
     for quantum simulation of materials; please cite
         "P. Giannozzi et al., J. Phys.:Condens. Matter 21 395502 (2009);
          URL http://www.quantum-espresso.org", 
     in publications or presentations arising from this work. More details at
     http://www.quantum-espresso.org/quote

     Parallel version (MPI), running on     1 processors
     Waiting for input...
     Reading input from standard input
Warning: card   B     0.0000000000D0   0.5000000000D0   0.5000000000D0 ignored
Warning: card   SI    0.2500000000D0   0.7500000000D0   0.7500000000D0 ignored
Warning: card   SI   -0.5000000000D0   0.0000000000D0   0.5000000000D0 ignored
Warning: card   SI   -0.2500000000D0   0.2500000000D0   0.7500000000D0 ignored
Warning: card   SI   -0.5000000000D0   0.5000000000D0   0.10000000000D0 ignored
Warning: card   SI   -0.2500000000D0   0.7500000000D0   1.25000000000D0 ignored

     Current dimensions of program PWSCF are:
     Max number of different atomic species (ntypx) = 10
     Max number of k-points (npk) =  40000
     Max angular momentum in pseudopotentials (lmaxx) =  3

     Atomic positions and unit cell read from directory:
     ./out/Si.save/

               file Si.pbe-mt_fhi.UPF: wavefunction(s)  4f renormalized
               file B.pbe-mt_fhi.UPF: wavefunction(s)  4f renormalized
               file P.pbe-mt_fhi.UPF: wavefunction(s)  4f renormalized

     Subspace diagonalization in iterative solution of the eigenvalue problem:
     a serial algorithm will be used


     G-vector sticks info
     --------------------
     sticks:   dense  smooth     PW     G-vecs:    dense   smooth      PW
     Sum         733     733    211                12939    12939    2109



     bravais-lattice index     =            2
     lattice parameter (alat)  =      10.2623  a.u.
     unit-cell volume          =     270.1967 (a.u.)^3
     number of atoms/cell      =            2
     number of atomic types    =            3
     number of electrons       =        10.00
     number of Kohn-Sham states=           24
     kinetic-energy cutoff     =      50.0000  Ry
     charge density cutoff     =     200.0000  Ry
     Exchange-correlation      = PBE ( 1  4  3  4 0)

     celldm(1)=  10.262347  celldm(2)=   0.000000  celldm(3)=   0.000000
     celldm(4)=   0.000000  celldm(5)=   0.000000  celldm(6)=   0.000000

     crystal axes: (cart. coord. in units of alat)
               a(1) = (  -0.500000   0.000000   0.500000 )  
               a(2) = (   0.000000   0.500000   0.500000 )  
               a(3) = (  -0.500000   0.500000   0.000000 )  

     reciprocal axes: (cart. coord. in units 2 pi/alat)
               b(1) = ( -1.000000 -1.000000  1.000000 )  
               b(2) = (  1.000000  1.000000  1.000000 )  
               b(3) = ( -1.000000  1.000000 -1.000000 )  


     PseudoPot. # 1 for Si read from file:
     /home/acedemo/psudo/Si.pbe-mt_fhi.UPF
     MD5 check sum: 259057c2adf9952f9ced37ae3d9e311d
     Pseudo is Norm-conserving, Zval =  4.0
     Generated using FHI98PP, converted with fhi2upf.x v.5.0.2
     Using radial grid of  495 points,  3 beta functions with: 
                l(1) =   0
                l(2) =   1
                l(3) =   3

     PseudoPot. # 2 for  B read from file:
     /home/acedemo/psudo/B.pbe-mt_fhi.UPF
     MD5 check sum: 3ba04917d1d3a8de85490f79a9c37fe5
     Pseudo is Norm-conserving + core correction, Zval =  3.0
     Generated using FHI98PP, converted with fhi2upf.x v.5.0.2
     Using radial grid of  453 points,  3 beta functions with: 
                l(1) =   0
                l(2) =   1
                l(3) =   3

     PseudoPot. # 3 for  P read from file:
     /home/acedemo/psudo/P.pbe-mt_fhi.UPF
     MD5 check sum: 7191c457fb61afa58d0f00d0e4a443c1
     Pseudo is Norm-conserving, Zval =  5.0
     Generated using FHI98PP, converted with fhi2upf.x v.5.0.2
     Using radial grid of  499 points,  3 beta functions with: 
                l(1) =   0
                l(2) =   1
                l(3) =   3

     atomic species   valence    mass     pseudopotential
        Si             4.00    28.08550     Si( 1.00)
        B              3.00    10.81100      B( 1.00)
        P              5.00    30.97376      P( 1.00)

     48 Sym. Ops., with inversion, found (24 have fractional translation)



   Cartesian axes

     site n.     atom                  positions (alat units)
         1           P   tau(   1) = (   0.0000000   0.0000000   0.0000000  )
         2           P   tau(   2) = (   0.2500000   0.2500000   0.2500000  )

     number of k points=    51  Marzari-Vanderbilt smearing, width (Ry)=  0.0500
                       cart. coord. in units 2pi/alat
        k(    1) = (   0.5000000   0.5000000   0.5000000), wk =   0.0000000
        k(    2) = (   0.4500000   0.4500000   0.4500000), wk =   0.0014779
        k(    3) = (   0.4000000   0.4000000   0.4000000), wk =   0.0029558
        k(    4) = (   0.3500000   0.3500000   0.3500000), wk =   0.0044337
        k(    5) = (   0.3000000   0.3000000   0.3000000), wk =   0.0059116
        k(    6) = (   0.2500000   0.2500000   0.2500000), wk =   0.0073895
        k(    7) = (   0.2000000   0.2000000   0.2000000), wk =   0.0088674
        k(    8) = (   0.1500000   0.1500000   0.1500000), wk =   0.0103453
        k(    9) = (   0.1000000   0.1000000   0.1000000), wk =   0.0118232
        k(   10) = (   0.0500000   0.0500000   0.0500000), wk =   0.0133011
        k(   11) = (   0.0000000   0.0000000   0.0000000), wk =   0.0147790
        k(   12) = (   0.0000000   0.1000000   0.0000000), wk =   0.0168691
        k(   13) = (   0.0000000   0.2000000   0.0000000), wk =   0.0189591
        k(   14) = (   0.0000000   0.3000000   0.0000000), wk =   0.0210492
        k(   15) = (   0.0000000   0.4000000   0.0000000), wk =   0.0231392
        k(   16) = (   0.0000000   0.5000000   0.0000000), wk =   0.0252293
        k(   17) = (   0.0000000   0.6000000   0.0000000), wk =   0.0273194
        k(   18) = (   0.0000000   0.7000000   0.0000000), wk =   0.0294094
        k(   19) = (   0.0000000   0.8000000   0.0000000), wk =   0.0314995
        k(   20) = (   0.0000000   0.9000000   0.0000000), wk =   0.0335896
        k(   21) = (   0.0000000   1.0000000   0.0000000), wk =   0.0356796
        k(   22) = (   0.0000000   0.9750000   0.0750000), wk =   0.0370621
        k(   23) = (   0.0000000   0.9500000   0.1500000), wk =   0.0384445
        k(   24) = (  -0.0000000   0.9250000   0.2250000), wk =   0.0398270
        k(   25) = (  -0.0000000   0.9000000   0.3000000), wk =   0.0412094
        k(   26) = (   0.0000000   0.8750000   0.3750000), wk =   0.0425919
        k(   27) = (   0.0000000   0.8500000   0.4500000), wk =   0.0439743
        k(   28) = (   0.0000000   0.8250000   0.5250000), wk =   0.0453568
        k(   29) = (  -0.0000000   0.8000000   0.6000000), wk =   0.0467392
        k(   30) = (  -0.0000000   0.7750000   0.6750000), wk =   0.0481217
        k(   31) = (   0.0000000   0.7500000   0.7500000), wk =   0.0495041
        k(   32) = (   0.0000000   0.7250000   0.7750000), wk =   0.0500266
        k(   33) = (   0.0000000   0.7000000   0.8000000), wk =   0.0505491
        k(   34) = (   0.0000000   0.6750000   0.8250000), wk =   0.0510717
        k(   35) = (   0.0000000   0.6500000   0.8500000), wk =   0.0515942
        k(   36) = (   0.0000000   0.6250000   0.8750000), wk =   0.0521167
        k(   37) = (   0.0000000   0.6000000   0.9000000), wk =   0.0526392
        k(   38) = (   0.0000000   0.5750000   0.9250000), wk =   0.0531617
        k(   39) = (   0.0000000   0.5500000   0.9500000), wk =   0.0536842
        k(   40) = (   0.0000000   0.5250000   0.9750000), wk =   0.0542067
        k(   41) = (   0.0000000   0.5000000   1.0000000), wk =   0.0547293
        k(   42) = (   0.0000000   0.4500000   0.9000000), wk =   0.0574942
        k(   43) = (  -0.0000000   0.4000000   0.8000000), wk =   0.0602591
        k(   44) = (  -0.0000000   0.3500000   0.7000000), wk =   0.0630239
        k(   45) = (  -0.0000000   0.3000000   0.6000000), wk =   0.0657888
        k(   46) = (   0.0000000   0.2500000   0.5000000), wk =   0.0685537
        k(   47) = (   0.0000000   0.2000000   0.4000000), wk =   0.0713186
        k(   48) = (   0.0000000   0.1500000   0.3000000), wk =   0.0740835
        k(   49) = (  -0.0000000   0.1000000   0.2000000), wk =   0.0768484
        k(   50) = (  -0.0000000   0.0500000   0.1000000), wk =   0.0796133
        k(   51) = (   0.0000000   0.0000000   0.0000000), wk =   0.0823782

     Dense  grid:    12939 G-vectors     FFT dimensions: (  36,  36,  36)

     Largest allocated arrays     est. size (Mb)     dimensions
        Kohn-Sham Wavefunctions         0.60 Mb     (    1639,   24)
        NL pseudopotentials             0.55 Mb     (    1639,   22)
        Each V/rho on FFT grid          0.71 Mb     (   46656)
        Each G-vector array             0.10 Mb     (   12939)
        G-vector shells                 0.00 Mb     (     180)
     Largest temporary arrays     est. size (Mb)     dimensions
        Auxiliary wavefunctions         2.40 Mb     (    1639,   96)
        Each subspace H/S matrix        0.14 Mb     (      96,   96)
        Each <psi_i|beta_j> matrix      0.01 Mb     (      22,   24)

     The potential is recalculated from file :
     ./out/Si.save/charge-density.dat

     Starting wfc are   32 randomized atomic wfcs

     Band Structure Calculation
     Davidson diagonalization with overlap

     ethr =  1.60E-11,  avg # of iterations = 21.5

     total cpu time spent up to now is       76.3 secs

     End of band structure calculation

          k = 0.5000 0.5000 0.5000 (  1622 PWs)   bands (ev):

    -6.1043  -2.8378   3.0309   3.0309   4.8572   8.5191   8.5191  13.0175
    15.4808  15.7515  16.2573  16.2573  16.5228  16.5228  23.7283  25.2257
    26.5338  26.5338  27.4861  27.4861  30.7847  30.7847  30.7949  32.5974

          k = 0.4500 0.4500 0.4500 (  1610 PWs)   bands (ev):

    -6.1960  -2.6901   3.0488   3.0488   4.8771   8.5161   8.5161  12.8476
    14.9358  15.4977  15.4977  16.4858  17.3672  17.3672  22.8745  25.8905
    25.8905  26.1863  27.9385  27.9385  30.4307  30.6717  30.6717  32.9365

          k = 0.4000 0.4000 0.4000 (  1616 PWs)   bands (ev):

    -6.4294  -2.2902   3.1020   3.1020   4.9355   8.5013   8.5013  12.3222
    14.6154  14.7341  14.7341  17.3372  18.3787  18.3787  21.7319  24.8695
    24.8695  27.6952  28.4327  28.4327  29.5273  30.4474  30.4474  33.8047

          k = 0.3500 0.3500 0.3500 (  1610 PWs)   bands (ev):

    -6.7275  -1.7162   3.1893   3.1893   5.0283   8.4582   8.4582  11.5488
    14.1128  14.1128  14.5736  17.8977  19.3714  19.3714  20.9975  23.8767
    23.8767  28.3540  28.7138  28.7138  29.3178  30.2191  30.2191  33.9365

          k = 0.3000 0.3000 0.3000 (  1615 PWs)   bands (ev):

    -7.0347  -1.0269   3.3078   3.3078   5.1471   8.3650   8.3650  10.6810
    13.6667  13.6667  14.6525  17.7469  20.1311  20.1311  21.1435  23.1862
    23.1862  27.1621  28.8257  28.8257  30.0127  30.0127  30.8822  33.5470

          k = 0.2500 0.2500 0.2500 (  1618 PWs)   bands (ev):

    -7.3198  -0.2582   3.4527   3.4527   5.2756   8.2061   8.2061   9.7995
    13.4165  13.4165  14.7057  17.1921  20.1762  20.1762  21.9310  23.3011
    23.3011  26.0211  28.8326  28.8326  29.8276  29.8276  32.0002  33.5410

          k = 0.2000 0.2000 0.2000 (  1606 PWs)   bands (ev):

    -7.5658   0.5667   3.6161   3.6161   5.3819   7.9861   7.9861   8.9517
    13.3587  13.3587  14.5524  16.8277  19.5718  19.5718  22.8174  24.1627
    24.1627  25.0995  28.7846  28.7846  29.6546  29.6546  31.8011  34.7364

          k = 0.1500 0.1500 0.1500 (  1600 PWs)   bands (ev):

    -7.7636   1.4292   3.7848   3.7848   5.4008   7.7347   7.7347   8.1969
    13.4594  13.4594  14.1436  16.8482  18.8156  18.8156  23.0873  24.9975
    25.2691  25.2691  28.7148  28.7148  29.4781  29.4781  31.0982  36.2259

          k = 0.1000 0.1000 0.1000 (  1606 PWs)   bands (ev):

    -7.9079   2.3103   3.9387   3.9387   5.2172   7.4978   7.4978   7.6343
    13.6560  13.6560  13.6806  17.0859  18.1278  18.1278  22.5677  25.8830
    26.3887  26.3887  28.6358  28.6358  29.2754  29.2754  30.2206  36.0861

          k = 0.0500 0.0500 0.0500 (  1630 PWs)   bands (ev):

    -7.9955   3.1850   4.0501   4.0501   4.7389   7.3266   7.3266   7.3417
    13.3432  13.8559  13.8559  17.3373  17.6314  17.6314  22.0644  26.9974
    27.3840  27.3840  28.5121  28.5121  29.0394  29.0394  29.2235  36.0004

          k = 0.0000 0.0000 0.0000 (  1639 PWs)   bands (ev):

    -8.0249   3.9497   4.0914   4.0914   4.0914   7.2637   7.2637   7.2637
    13.2216  13.9435  13.9435  17.4450  17.4450  17.4450  21.8683  28.0432
    28.0432  28.0432  28.2248  28.2248  28.2248  28.9112  28.9112  35.9716

          k = 0.0000 0.1000 0.0000 (  1627 PWs)   bands (ev):

    -7.9857   3.0983   3.9717   3.9717   4.9323   7.1853   7.4310   7.4310
    13.3839  13.6701  13.9907  17.5167  17.5167  17.6423  22.1353  26.9632
    26.9632  27.4671  28.2980  28.5648  29.1543  29.1543  29.3453  36.2140

          k = 0.0000 0.2000 0.0000 (  1599 PWs)   bands (ev):

    -7.8684   2.1851   3.6743   3.6743   5.7984   6.9780   7.8703   7.8703
    13.0556  13.8405  14.1320  17.7279  17.7279  18.0880  22.8771  25.7235
    25.7235  26.5182  27.6915  28.5299  29.8759  29.9656  29.9656  36.9138

          k = 0.0000 0.3000 0.0000 (  1607 PWs)   bands (ev):

    -7.6741   1.2839   3.3027   3.3027   6.5626   6.7020   8.4765   8.4765
    12.4179  14.3674  14.5209  18.0645  18.0645  18.6288  23.9328  24.4821
    24.4821  25.4935  26.5562  28.9626  30.2288  30.5724  30.5724  37.0807

          k = 0.0000 0.4000 0.0000 (  1607 PWs)   bands (ev):

    -7.4038   0.3999   2.9248   2.9248   6.4148   7.1142   9.1786   9.1786
    12.0035  14.6963  15.3452  18.4862  18.4862  19.2427  23.3211  23.3211
    24.4720  25.0883  25.3234  29.6762  30.3605  30.9927  30.9927  35.8380

          k = 0.0000 0.5000 0.0000 (  1612 PWs)   bands (ev):

    -7.0599  -0.4635   2.5764   2.5764   6.1579   7.3261   9.9363   9.9363
    12.0008  15.1184  16.2208  18.8731  18.8731  19.9490  22.3870  22.3870
    23.5329  24.0756  26.1376  30.2417  30.7523  31.1761  31.1761  34.6392

          k = 0.0000 0.6000 0.0000 (  1620 PWs)   bands (ev):

    -6.6449  -1.3038   2.2763   2.2763   5.9583   7.2006  10.7231  10.7231
    12.4342  15.6330  17.0031  18.9175  18.9175  20.7641  22.0053  22.0053
    22.8104  22.8548  26.9685  29.8307  30.8775  30.8775  31.9782  33.6521

          k = 0.0000 0.7000 0.0000 (  1632 PWs)   bands (ev):

    -6.1623  -2.1176   2.0352   2.0352   5.8334   6.8913  11.5121  11.5121
    13.1595  16.2389  17.4407  18.4120  18.4120  21.6843  21.6929  22.4014
    22.4014  22.5435  27.5576  29.0838  29.9104  29.9104  31.2536  32.4888

          k = 0.0000 0.8000 0.0000 (  1624 PWs)   bands (ev):

    -5.6161  -2.9005   1.8594   1.8594   5.7943   6.5420  12.2589  12.2589
    14.0312  16.9351  17.3090  17.6685  17.6685  20.5780  22.7234  22.9364
    23.2954  23.2954  27.7147  28.0389  28.5817  28.5817  30.0444  31.5513

          k = 0.0000 0.9000 0.0000 (  1608 PWs)   bands (ev):

    -5.0113  -3.6476   1.7526   1.7526   5.8474   6.2310  12.8625  12.8625
    14.9588  16.7092  17.0169  17.0169  17.7197  19.5448  23.7952  23.8199
    24.4372  24.4372  26.8859  26.9758  27.1698  27.1698  29.8150  30.8151

          k = 0.0000 1.0000 0.0000 (  1604 PWs)   bands (ev):

    -4.3531  -4.3531   1.7168   1.7168   5.9944   5.9944  13.1157  13.1157
    15.8775  15.8775  16.7418  16.7418  18.5907  18.5907  24.4892  24.4892
    25.5332  25.5332  25.9825  25.9825  26.2040  26.2040  30.2182  30.2182

          k = 0.0000 0.9750 0.0750 (  1618 PWs)   bands (ev):

    -4.5176  -4.1792   1.6760   1.6814   6.0500   6.1431  12.9551  13.0076
    15.4813  15.7213  16.9293  17.0790  18.5277  18.9887  24.1382  24.2762
    25.1696  25.3878  26.0822  26.1038  26.6766  26.6767  29.9609  30.2438

          k = 0.0000 0.9500 0.1500 (  1622 PWs)   bands (ev):

    -4.6649  -4.0057   1.5594   1.5998   6.3032   6.4715  12.4144  12.7502
    15.2094  15.2424  17.0912  17.5866  18.7787  19.7246  23.3876  23.8229
    24.8201  25.4147  26.1702  26.1981  27.3069  27.4621  29.5954  30.3217

          k =-0.0000 0.9250 0.2250 (  1622 PWs)   bands (ev):

    -4.7894  -3.8451   1.3928   1.5161   6.7225   6.9384  11.5932  12.3959
    14.7402  15.1508  17.1386  17.9978  19.2295  20.6993  22.6491  23.3069
    24.6429  25.4278  26.1466  26.2351  27.4845  28.2641  29.4443  30.9208

          k =-0.0000 0.9000 0.3000 (  1623 PWs)   bands (ev):

    -4.8877  -3.7113   1.2086   1.4708   7.2688   7.4959  10.6754  11.9688
    14.2727  15.1605  17.1570  18.3532  19.7335  21.7453  22.0615  22.8459
    24.5956  25.2255  26.0251  26.0414  27.4419  28.9779  29.7419  32.0260

          k = 0.0000 0.8750 0.3750 (  1614 PWs)   bands (ev):

    -4.9571  -3.6161   1.0335   1.4909   7.9073   8.0588   9.8168  11.4913
    13.8509  15.1342  17.2037  18.6941  20.1679  21.7266  22.3113  22.8826
    24.6320  24.6336  25.6023  26.0706  27.5320  29.5386  30.3904  33.3323

          k = 0.0000 0.8500 0.4500 (  1612 PWs)   bands (ev):

    -4.9964  -3.5672   0.8858   1.5856   8.2241   8.6049   9.4484  10.9925
    13.4700  15.0235  17.3016  19.0392  20.4127  21.7429  22.0644  23.4967
    23.8561  24.5021  25.5136  26.2501  27.7042  29.8385  31.2181  33.2717

          k = 0.0000 0.8250 0.5250 (  1611 PWs)   bands (ev):

    -5.0046  -3.5650   0.7775   1.7423   7.6503   9.3040   9.9239  10.5293
    13.1229  14.8352  17.4412  19.3952  20.5187  21.8694  21.9472  23.1625
    23.2492  24.5135  26.0832  26.5067  27.8270  29.7425  32.1658  32.8914

          k =-0.0000 0.8000 0.6000 (  1614 PWs)   bands (ev):

    -4.9811  -3.6046   0.7159   1.9230   7.0006   9.6415  10.4565  10.5821
    12.8120  14.6281  17.5822  19.7601  20.6389  21.7372  21.7652  22.4572
    23.0713  24.7851  26.7931  26.8205  27.7852  29.2563  32.4547  32.6854

          k =-0.0000 0.7750 0.6750 (  1621 PWs)   bands (ev):

    -4.9257  -3.6785   0.7049   2.0609   6.5152   9.2996  11.0516  11.1665
    12.5733  14.5085  17.6538  20.1150  20.7243  21.3157  21.4401  21.9110
    23.4919  25.0352  27.1744  27.3492  27.5424  28.4821  31.7173  32.3528

          k = 0.0000 0.7500 0.7500 (  1624 PWs)   bands (ev):

    -4.8378  -3.7802   0.7461   2.0746   6.3020   8.8632  11.5214  11.5341
    12.5977  14.6116  17.5568  20.3048  20.5166  20.6858  21.4427  22.0531
    24.0136  25.1317  27.2396  27.4642  27.6232  27.6247  31.1812  31.9387

          k = 0.0000 0.7250 0.7750 (  1616 PWs)   bands (ev):

    -4.8323  -3.7846   0.7499   2.0526   6.3426   8.8656  11.4637  11.4812
    12.6690  14.6443  17.5309  20.1293  20.5419  20.8608  21.4694  22.0670
    24.0148  25.0904  27.1916  27.2620  27.5886  27.8788  31.2045  31.9305

          k = 0.0000 0.7000 0.8000 (  1621 PWs)   bands (ev):

    -4.8157  -3.7982   0.7612   1.9896   6.4613   8.8726  11.2914  11.3668
    12.8437  14.7343  17.4596  19.8441  20.6130  21.1433  21.5493  22.1097
    24.0183  24.9747  26.8444  27.3037  27.4979  28.1725  31.2762  31.9197

          k = 0.0000 0.6750 0.8250 (  1620 PWs)   bands (ev):

    -4.7881  -3.8210   0.7800   1.8938   6.6498   8.8838  11.0724  11.1933
    13.0674  14.8606  17.3604  19.5473  20.7192  21.4293  21.6809  22.1848
    24.0244  24.8033  26.4919  27.1999  27.5010  28.4301  31.4005  31.9373

          k = 0.0000 0.6500 0.8500 (  1616 PWs)   bands (ev):

    -4.7495  -3.8537   0.8062   1.7761   6.8972   8.8980  10.8362  10.9780
    13.3109  14.9944  17.2580  19.2518  20.8500  21.6930  21.8596  22.3011
    24.0331  24.5974  26.1418  26.9267  27.6120  28.6373  31.5820  32.0120

          k = 0.0000 0.6250 0.8750 (  1616 PWs)   bands (ev):

    -4.6999  -3.8970   0.8395   1.6472   7.1922   8.9136  10.5973  10.7361
    13.5612  15.1036  17.1815  18.9620  20.9990  21.9094  22.0768  22.4721
    24.0444  24.3766  25.7999  26.5703  27.7479  28.7846  31.8227  32.1569

          k = 0.0000 0.6000 0.9000 (  1613 PWs)   bands (ev):

    -4.6394  -3.9514   0.8799   1.5166   7.5238   8.9274  10.3649  10.4801
    13.8110  15.1573  17.1597  18.6804  21.1642  22.0628  22.3210  22.6974
    24.0577  24.1605  25.4732  26.1593  27.8953  28.8670  32.1198  32.3714

          k = 0.0000 0.5750 0.9250 (  1615 PWs)   bands (ev):

    -4.5681  -4.0175   0.9269   1.3920   7.8808   8.9343  10.1479  10.2214
    14.0556  15.1364  17.2100  18.4096  21.3447  22.1529  22.5792  22.9496
    23.9727  24.0693  25.1729  25.7204  28.0511  28.8838  32.4662  32.6460

          k = 0.0000 0.5500 0.9500 (  1615 PWs)   bands (ev):

    -4.4859  -4.0958   0.9803   1.2791   8.2477   8.9256   9.9572   9.9745
    14.2911  15.0435  17.3285  18.1523  21.5391  22.1733  22.8364  23.1830
    23.8483  24.0671  24.9219  25.2889  28.2151  28.8370  32.8515  32.9683

          k = 0.0000 0.5250 0.9750 (  1615 PWs)   bands (ev):

    -4.3929  -4.1865   1.0397   1.1824   8.5908   8.8882   9.7718   9.8072
    14.5131  14.8965  17.4966  17.9120  21.7434  22.1076  23.0749  23.3165
    23.8368  24.0222  24.7659  24.9261  28.3876  28.7300  33.2596  33.3218

          k = 0.0000 0.5000 1.0000 (  1628 PWs)   bands (ev):

    -4.2895  -4.2895   1.1047   1.1047   8.8100   8.8100   9.7113   9.7113
    14.7160  14.7160  17.6935  17.6935  21.9492  21.9492  23.2654  23.2654
    23.9249  23.9249  24.7465  24.7465  28.5687  28.5687  33.5922  33.5922

          k = 0.0000 0.4500 0.9000 (  1616 PWs)   bands (ev):

    -4.7649  -3.8093   0.9352   1.4058   8.4247   8.6012   9.5032  10.6408
    13.8873  15.1541  17.2056  18.5784  20.8986  22.2193  22.3902  23.1984
    24.0511  24.3051  25.1975  25.5943  27.8385  29.4074  31.7219  33.5785

          k =-0.0000 0.4000 0.8000 (  1616 PWs)   bands (ev):

    -5.2970  -3.2405   0.9646   1.7567   8.0754   8.1418   9.4106  11.6015
    13.3890  14.7532  17.4935  19.3324  19.6588  21.0724  21.7583  23.5983
    24.1198  24.6128  26.0443  26.9849  27.6536  29.8038  30.6318  33.2597

          k =-0.0000 0.3500 0.7000 (  1618 PWs)   bands (ev):

    -5.8453  -2.5839   1.1689   2.1366   7.7424   7.7593   9.4233  11.3380
    14.0367  14.1831  17.3627  19.0216  19.5043  20.2536  21.5713  23.1895
    24.0830  24.7747  27.4455  27.5133  28.1419  29.5564  31.6872  33.1722

          k =-0.0000 0.3000 0.6000 (  1609 PWs)   bands (ev):

    -6.3725  -1.8413   1.5146   2.5234   7.4351   7.4562   9.5145  10.5617
    13.3271  15.3389  16.2599  18.8271  19.2220  20.3124  21.3960  22.9332
    23.7361  25.2977  26.6327  28.5523  29.3870  30.8067  31.4800  32.9974

          k = 0.0000 0.2500 0.5000 (  1610 PWs)   bands (ev):

    -6.8507  -1.0157   1.9669   2.8980   7.1350   7.2278   9.5935   9.7630
    12.7218  15.2014  15.8436  18.3081  19.2124  20.8180  20.8901  23.1265
    23.6904  25.8888  26.1229  29.0853  29.4176  30.8816  32.6533  33.1783

          k = 0.0000 0.2000 0.4000 (  1613 PWs)   bands (ev):

    -7.2608  -0.1115   2.4892   3.2469   6.7649   7.1205   9.0191   9.4298
    12.3994  14.4828  15.4622  17.8567  18.8677  20.6805  21.5333  23.1808
    24.6712  25.6480  26.5319  28.1975  29.4685  31.3126  32.7250  34.1129

          k = 0.0000 0.1500 0.3000 (  1607 PWs)   bands (ev):

    -7.5900   0.8639   3.0372   3.5612   6.3166   7.1046   8.3569   8.8440
    12.5655  14.1127  14.7176  17.5577  18.2678  19.7063  23.1467  23.6721
    25.0732  25.6762  27.2344  27.8267  29.6818  30.8331  31.7443  35.7437

          k =-0.0000 0.1000 0.2000 (  1600 PWs)   bands (ev):

    -7.8300   1.8972   3.5505   3.8279   5.7440   7.1562   7.8042   8.0747
    13.0845  13.9691  13.9740  17.4252  17.8085  18.6587  23.0138  24.9500
    25.7303  26.6358  27.9372  27.9711  29.6493  30.1008  30.5821  36.6500

          k =-0.0000 0.0500 0.1000 (  1623 PWs)   bands (ev):

    -7.9759   2.9635   3.9401   4.0193   4.9799   7.2292   7.4119   7.4788
    13.4228  13.6647  13.9444  17.4220  17.5352  17.8063  22.1939  26.6815
    26.8949  27.5053  28.1351  28.6114  29.2079  29.3388  29.3722  36.1572

          k = 0.0000 0.0000 0.0000 (  1639 PWs)   bands (ev):

    -8.0249   3.9497   4.0914   4.0914   4.0914   7.2637   7.2637   7.2637
    13.2216  13.9435  13.9435  17.4450  17.4450  17.4450  21.8683  28.0432
    28.0432  28.0432  28.2248  28.2248  28.2248  28.9112  28.9112  35.9716

     Writing output data file Si.save

     init_run     :      0.43s CPU      0.48s WALL (       1 calls)
     electrons    :     71.46s CPU     73.77s WALL (       1 calls)

     Called by init_run:
     wfcinit      :      0.00s CPU      0.00s WALL (       1 calls)
     potinit      :      0.07s CPU      0.07s WALL (       1 calls)

     Called by electrons:
     c_bands      :     71.46s CPU     73.77s WALL (       1 calls)
     v_of_rho     :      0.06s CPU      0.06s WALL (       1 calls)

     Called by c_bands:
     init_us_2    :      0.11s CPU      0.12s WALL (      51 calls)
     cegterg      :     64.75s CPU     66.91s WALL (      72 calls)

     Called by *egterg:
     h_psi        :     49.78s CPU     51.38s WALL (    1217 calls)
     g_psi        :      0.13s CPU      0.14s WALL (    1094 calls)
     cdiaghg      :      3.86s CPU      4.03s WALL (    1145 calls)

     Called by h_psi:
     add_vuspsi   :      1.43s CPU      1.46s WALL (    1217 calls)

     General routines
     calbec       :      1.60s CPU      1.65s WALL (    1217 calls)
     fft          :      0.03s CPU      0.03s WALL (      11 calls)
     fftw         :     44.22s CPU     45.64s WALL (   30942 calls)
     davcio       :      0.00s CPU      0.01s WALL (      51 calls)

     Parallel routines
     fft_scatter  :      1.08s CPU      1.11s WALL (   30953 calls)

     PWSCF        :  1m13.85s CPU     1m16.42s WALL


   This run was terminated on:   0:51:38  27Mar2023            

=------------------------------------------------------------------------------=
   JOB DONE.
=------------------------------------------------------------------------------=
