
     Program PWSCF v.5.1 starts on 27Mar2023 at  0:45:52 

     This program is part of the open-source Quantum ESPRESSO suite
     for quantum simulation of materials; please cite
         "P. Giannozzi et al., J. Phys.:Condens. Matter 21 395502 (2009);
          URL http://www.quantum-espresso.org", 
     in publications or presentations arising from this work. More details at
     http://www.quantum-espresso.org/quote

     Parallel version (MPI), running on     1 processors
     Waiting for input...
     Reading input from standard input
Warning: card   B     0.0000000000D0   0.5000000000D0   0.5000000000D0 ignored
Warning: card   SI    0.2500000000D0   0.7500000000D0   0.7500000000D0 ignored
Warning: card   SI   -0.5000000000D0   0.0000000000D0   0.5000000000D0 ignored
Warning: card   SI   -0.2500000000D0   0.2500000000D0   0.7500000000D0 ignored
Warning: card   SI   -0.5000000000D0   0.5000000000D0   0.10000000000D0 ignored
Warning: card   SI   -0.2500000000D0   0.7500000000D0   1.25000000000D0 ignored

     Current dimensions of program PWSCF are:
     Max number of different atomic species (ntypx) = 10
     Max number of k-points (npk) =  40000
     Max angular momentum in pseudopotentials (lmaxx) =  3
               file Si.pbe-mt_fhi.UPF: wavefunction(s)  4f renormalized
               file B.pbe-mt_fhi.UPF: wavefunction(s)  4f renormalized
               file P.pbe-mt_fhi.UPF: wavefunction(s)  4f renormalized

     Subspace diagonalization in iterative solution of the eigenvalue problem:
     a serial algorithm will be used


     G-vector sticks info
     --------------------
     sticks:   dense  smooth     PW     G-vecs:    dense   smooth      PW
     Sum         733     733    211                12939    12939    2109



     bravais-lattice index     =            2
     lattice parameter (alat)  =      10.2623  a.u.
     unit-cell volume          =     270.1967 (a.u.)^3
     number of atoms/cell      =            2
     number of atomic types    =            3
     number of electrons       =        10.00
     number of Kohn-Sham states=           24
     kinetic-energy cutoff     =      50.0000  Ry
     charge density cutoff     =     200.0000  Ry
     convergence threshold     =      1.6E-09
     mixing beta               =       0.3000
     number of iterations used =            8  plain     mixing
     Exchange-correlation      = PBE ( 1  4  3  4 0)

     celldm(1)=  10.262347  celldm(2)=   0.000000  celldm(3)=   0.000000
     celldm(4)=   0.000000  celldm(5)=   0.000000  celldm(6)=   0.000000

     crystal axes: (cart. coord. in units of alat)
               a(1) = (  -0.500000   0.000000   0.500000 )  
               a(2) = (   0.000000   0.500000   0.500000 )  
               a(3) = (  -0.500000   0.500000   0.000000 )  

     reciprocal axes: (cart. coord. in units 2 pi/alat)
               b(1) = ( -1.000000 -1.000000  1.000000 )  
               b(2) = (  1.000000  1.000000  1.000000 )  
               b(3) = ( -1.000000  1.000000 -1.000000 )  


     PseudoPot. # 1 for Si read from file:
     /home/acedemo/psudo/Si.pbe-mt_fhi.UPF
     MD5 check sum: 259057c2adf9952f9ced37ae3d9e311d
     Pseudo is Norm-conserving, Zval =  4.0
     Generated using FHI98PP, converted with fhi2upf.x v.5.0.2
     Using radial grid of  495 points,  3 beta functions with: 
                l(1) =   0
                l(2) =   1
                l(3) =   3

     PseudoPot. # 2 for  B read from file:
     /home/acedemo/psudo/B.pbe-mt_fhi.UPF
     MD5 check sum: 3ba04917d1d3a8de85490f79a9c37fe5
     Pseudo is Norm-conserving + core correction, Zval =  3.0
     Generated using FHI98PP, converted with fhi2upf.x v.5.0.2
     Using radial grid of  453 points,  3 beta functions with: 
                l(1) =   0
                l(2) =   1
                l(3) =   3

     PseudoPot. # 3 for  P read from file:
     /home/acedemo/psudo/P.pbe-mt_fhi.UPF
     MD5 check sum: 7191c457fb61afa58d0f00d0e4a443c1
     Pseudo is Norm-conserving, Zval =  5.0
     Generated using FHI98PP, converted with fhi2upf.x v.5.0.2
     Using radial grid of  499 points,  3 beta functions with: 
                l(1) =   0
                l(2) =   1
                l(3) =   3

     atomic species   valence    mass     pseudopotential
        Si             4.00    28.08550     Si( 1.00)
        B              3.00    10.81100      B( 1.00)
        P              5.00    30.97376      P( 1.00)

     48 Sym. Ops., with inversion, found (24 have fractional translation)



   Cartesian axes

     site n.     atom                  positions (alat units)
         1           P   tau(   1) = (   0.0000000   0.0000000   0.0000000  )
         2           P   tau(   2) = (   0.2500000   0.2500000   0.2500000  )

     number of k points=    10  Marzari-Vanderbilt smearing, width (Ry)=  0.0500
                       cart. coord. in units 2pi/alat
        k(    1) = (   0.0000000   0.0000000   0.0000000), wk =   0.0160000
        k(    2) = (  -0.2000000   0.2000000  -0.2000000), wk =   0.1280000
        k(    3) = (  -0.4000000   0.4000000  -0.4000000), wk =   0.1280000
        k(    4) = (   0.0000000   0.4000000   0.0000000), wk =   0.0960000
        k(    5) = (  -0.2000000   0.6000000  -0.2000000), wk =   0.3840000
        k(    6) = (   0.6000000  -0.2000000   0.6000000), wk =   0.3840000
        k(    7) = (   0.4000000   0.0000000   0.4000000), wk =   0.1920000
        k(    8) = (   0.0000000   0.8000000   0.0000000), wk =   0.0960000
        k(    9) = (   0.8000000   0.0000000   0.8000000), wk =   0.1920000
        k(   10) = (   0.6000000  -0.2000000   1.0000000), wk =   0.3840000

     Dense  grid:    12939 G-vectors     FFT dimensions: (  36,  36,  36)

     Largest allocated arrays     est. size (Mb)     dimensions
        Kohn-Sham Wavefunctions         0.60 Mb     (    1639,   24)
        NL pseudopotentials             0.55 Mb     (    1639,   22)
        Each V/rho on FFT grid          0.71 Mb     (   46656)
        Each G-vector array             0.10 Mb     (   12939)
        G-vector shells                 0.00 Mb     (     180)
     Largest temporary arrays     est. size (Mb)     dimensions
        Auxiliary wavefunctions         2.40 Mb     (    1639,   96)
        Each subspace H/S matrix        0.14 Mb     (      96,   96)
        Each <psi_i|beta_j> matrix      0.01 Mb     (      22,   24)
        Arrays for rho mixing           5.70 Mb     (   46656,    8)

     Initial potential from superposition of free atoms

     starting charge    9.99977, renormalised to   10.00000
     Starting wfc are   32 randomized atomic wfcs

     total cpu time spent up to now is        2.0 secs

     per-process dynamical memory:    21.5 Mb

     Self-consistent Calculation

     iteration #  1     ecut=    50.00 Ry     beta=0.30
     Davidson diagonalization with overlap
     ethr =  1.00E-02,  avg # of iterations =  4.6

     Threshold (ethr) on eigenvalues was too large:
     Diagonalizing with lowered threshold

     Davidson diagonalization with overlap
     ethr =  1.65E-04,  avg # of iterations =  1.2

     total cpu time spent up to now is        8.6 secs

     total energy              =     -26.32227351 Ry
     Harris-Foulkes estimate   =     -26.32463277 Ry
     estimated scf accuracy    <       0.01645604 Ry

     iteration #  2     ecut=    50.00 Ry     beta=0.30
     Davidson diagonalization with overlap
     ethr =  1.65E-04,  avg # of iterations =  1.0

     total cpu time spent up to now is       10.6 secs

     total energy              =     -26.32061835 Ry
     Harris-Foulkes estimate   =     -26.32241874 Ry
     estimated scf accuracy    <       0.00694284 Ry

     iteration #  3     ecut=    50.00 Ry     beta=0.30
     Davidson diagonalization with overlap
     ethr =  6.94E-05,  avg # of iterations =  1.0

     total cpu time spent up to now is       12.9 secs

     total energy              =     -26.32091448 Ry
     Harris-Foulkes estimate   =     -26.32096119 Ry
     estimated scf accuracy    <       0.00014501 Ry

     iteration #  4     ecut=    50.00 Ry     beta=0.30
     Davidson diagonalization with overlap
     ethr =  1.45E-06,  avg # of iterations =  2.0

     total cpu time spent up to now is       15.5 secs

     total energy              =     -26.32092616 Ry
     Harris-Foulkes estimate   =     -26.32092618 Ry
     estimated scf accuracy    <       0.00000065 Ry

     iteration #  5     ecut=    50.00 Ry     beta=0.30
     Davidson diagonalization with overlap
     ethr =  6.51E-09,  avg # of iterations =  2.1

     total cpu time spent up to now is       18.0 secs

     total energy              =     -26.32092653 Ry
     Harris-Foulkes estimate   =     -26.32092639 Ry
     estimated scf accuracy    <       0.00000005 Ry

     iteration #  6     ecut=    50.00 Ry     beta=0.30
     Davidson diagonalization with overlap
     ethr =  4.69E-10,  avg # of iterations =  2.0

     total cpu time spent up to now is       20.2 secs

     total energy              =     -26.32092656 Ry
     Harris-Foulkes estimate   =     -26.32092654 Ry
     estimated scf accuracy    <          4.0E-09 Ry

     iteration #  7     ecut=    50.00 Ry     beta=0.30
     Davidson diagonalization with overlap
     ethr =  4.01E-11,  avg # of iterations =  2.1

     total cpu time spent up to now is       22.8 secs

     End of self-consistent calculation

          k = 0.0000 0.0000 0.0000 (  1639 PWs)   bands (ev):

    -8.0249   3.9497   4.0915   4.0915   4.0915   7.2637   7.2637   7.2637
    13.2216  13.9435  13.9435  17.4450  17.4450  17.4450  21.8684  28.0432
    28.0432  28.0432  28.2248  28.2248  28.2248  28.9112  28.9112  35.9716

          k =-0.2000 0.2000-0.2000 (  1606 PWs)   bands (ev):

    -7.5658   0.5667   3.6161   3.6161   5.3820   7.9862   7.9862   8.9517
    13.3587  13.3587  14.5524  16.8278  19.5718  19.5718  22.8174  24.1627
    24.1627  25.0995  28.7847  28.7847  29.6546  29.6546  31.8012  34.7365

          k =-0.4000 0.4000-0.4000 (  1616 PWs)   bands (ev):

    -6.4294  -2.2902   3.1021   3.1021   4.9355   8.5013   8.5013  12.3222
    14.6154  14.7341  14.7341  17.3372  18.3787  18.3787  21.7320  24.8695
    24.8695  27.6952  28.4328  28.4328  29.5273  30.4474  30.4474  33.8047

          k = 0.0000 0.4000 0.0000 (  1607 PWs)   bands (ev):

    -7.4038   0.3999   2.9249   2.9249   6.4148   7.1142   9.1786   9.1786
    12.0035  14.6963  15.3452  18.4862  18.4862  19.2427  23.3212  23.3212
    24.4720  25.0883  25.3235  29.6762  30.3605  30.9927  30.9927  35.8380

          k =-0.2000 0.6000-0.2000 (  1619 PWs)   bands (ev):

    -6.4155  -1.8535   1.8932   2.4546   6.5073   8.0146   9.9418  10.0341
    13.9059  15.7754  15.8913  17.9955  18.6414  20.2810  22.5101  23.1329
    23.3897  25.0085  26.7073  28.8303  29.2726  31.1567  31.4161  32.8988

          k = 0.6000-0.2000 0.6000 (  1596 PWs)   bands (ev):

    -5.7333  -2.9367   1.2174   2.6516   6.4591   8.9578   9.6379  11.7767
    12.9897  14.2190  17.3453  17.7721  19.2551  19.9301  22.5537  24.2082
    24.4854  25.0213  26.5011  27.6619  30.6637  30.9436  31.8705  32.0465

          k = 0.4000 0.0000 0.4000 (  1610 PWs)   bands (ev):

    -6.8402  -1.1055   1.7464   3.3470   6.5338   8.5793   8.7364   9.8880
    12.5325  15.1933  15.4370  18.1199  19.1417  20.7577  22.1206  22.1860
    24.0632  26.1764  26.7919  28.4794  30.3024  30.3580  32.2880  32.8544

          k = 0.0000 0.8000 0.0000 (  1624 PWs)   bands (ev):

    -5.6161  -2.9005   1.8594   1.8594   5.7944   6.5420  12.2589  12.2589
    14.0313  16.9351  17.3090  17.6686  17.6686  20.5780  22.7234  22.9364
    23.2954  23.2954  27.7147  28.0389  28.5818  28.5818  30.0444  31.5513

          k = 0.8000 0.0000 0.8000 (  1622 PWs)   bands (ev):

    -4.6530  -3.9861   0.9206   1.9491   6.2001   8.0152  11.9322  11.9973
    13.2256  15.1135  17.1243  19.7979  19.8618  20.0756  22.1217  22.6658
    25.0130  25.0427  26.7902  26.7965  27.1688  27.7899  30.3682  31.1662

          k = 0.6000-0.2000 1.0000 (  1616 PWs)   bands (ev):

    -5.2970  -3.2404   0.9646   1.7567   8.0754   8.1418   9.4107  11.6015
    13.3891  14.7532  17.4935  19.3325  19.6588  21.0724  21.7583  23.5983
    24.1198  24.6128  26.0443  26.9849  27.6536  29.8039  30.6318  33.2597

     the Fermi energy is     7.4627 ev

!    total energy              =     -26.32092657 Ry
     Harris-Foulkes estimate   =     -26.32092657 Ry
     estimated scf accuracy    <          2.0E-10 Ry

     The total energy is the sum of the following terms:

     one-electron contribution =       4.13609047 Ry
     hartree contribution      =       2.42009760 Ry
     xc contribution           =      -6.63775704 Ry
     ewald contribution        =     -26.24544956 Ry
     smearing contrib. (-TS)   =       0.00609196 Ry

     convergence has been achieved in   7 iterations

     Forces acting on atoms (Ry/au):

     atom    1 type  3   force =     0.00000000    0.00000000    0.00000000
     atom    2 type  3   force =     0.00000000    0.00000000   -0.00000000

     Total force =     0.000000     Total SCF correction =     0.000000


     entering subroutine stress ...

          total   stress  (Ry/bohr**3)                   (kbar)     P=   -0.34
  -0.00000234   0.00000000   0.00000000         -0.34      0.00      0.00
   0.00000000  -0.00000234  -0.00000000          0.00     -0.34     -0.00
   0.00000000  -0.00000000  -0.00000234          0.00     -0.00     -0.34


     Writing output data file Si.save

     init_run     :      1.78s CPU      1.83s WALL (       1 calls)
     electrons    :     19.75s CPU     20.81s WALL (       1 calls)
     forces       :      0.23s CPU      0.35s WALL (       1 calls)
     stress       :      0.95s CPU      1.36s WALL (       1 calls)

     Called by init_run:
     wfcinit      :      1.35s CPU      1.39s WALL (       1 calls)
     potinit      :      0.06s CPU      0.06s WALL (       1 calls)

     Called by electrons:
     c_bands      :     16.55s CPU     17.44s WALL (       8 calls)
     sum_band     :      2.86s CPU      3.02s WALL (       8 calls)
     v_of_rho     :      0.36s CPU      0.36s WALL (       8 calls)
     mix_rho      :      0.02s CPU      0.02s WALL (       8 calls)

     Called by c_bands:
     init_us_2    :      0.35s CPU      0.38s WALL (     190 calls)
     cegterg      :     16.28s CPU     17.17s WALL (      80 calls)

     Called by *egterg:
     h_psi        :     14.24s CPU     14.93s WALL (     250 calls)
     g_psi        :      0.02s CPU      0.02s WALL (     160 calls)
     cdiaghg      :      0.51s CPU      0.54s WALL (     230 calls)

     Called by h_psi:
     add_vuspsi   :      0.39s CPU      0.41s WALL (     250 calls)

     General routines
     calbec       :      0.51s CPU      0.56s WALL (     270 calls)
     fft          :      0.18s CPU      0.22s WALL (     114 calls)
     fftw         :     15.04s CPU     15.75s WALL (   11282 calls)
     davcio       :      0.00s CPU      0.01s WALL (      10 calls)

     Parallel routines
     fft_scatter  :      0.39s CPU      0.40s WALL (   11396 calls)

     PWSCF        :    22.91s CPU        24.68s WALL


   This run was terminated on:   0:46:17  27Mar2023            

=------------------------------------------------------------------------------=
   JOB DONE.
=------------------------------------------------------------------------------=
