
     Program PWSCF v.5.1 starts on 13Feb2023 at 20:31:43 

     This program is part of the open-source Quantum ESPRESSO suite
     for quantum simulation of materials; please cite
         "P. Giannozzi et al., J. Phys.:Condens. Matter 21 395502 (2009);
          URL http://www.quantum-espresso.org", 
     in publications or presentations arising from this work. More details at
     http://www.quantum-espresso.org/quote

     Parallel version (MPI), running on     1 processors
     Waiting for input...
     Reading input from standard input

     Current dimensions of program PWSCF are:
     Max number of different atomic species (ntypx) = 10
     Max number of k-points (npk) =  40000
     Max angular momentum in pseudopotentials (lmaxx) =  3

     Atomic positions and unit cell read from directory:
     ./out/Si.save/

               file Si.pbe-mt_fhi.UPF: wavefunction(s)  4f renormalized

     Subspace diagonalization in iterative solution of the eigenvalue problem:
     a serial algorithm will be used


     G-vector sticks info
     --------------------
     sticks:   dense  smooth     PW     G-vecs:    dense   smooth      PW
     Sum         733     733    211                12939    12939    2109



     bravais-lattice index     =            2
     lattice parameter (alat)  =      10.2623  a.u.
     unit-cell volume          =     270.1967 (a.u.)^3
     number of atoms/cell      =            2
     number of atomic types    =            1
     number of electrons       =         6.00
     number of Kohn-Sham states=           10
     kinetic-energy cutoff     =      50.0000  Ry
     charge density cutoff     =     200.0000  Ry
     Exchange-correlation      = PBE ( 1  4  3  4 0)

     celldm(1)=  10.262347  celldm(2)=   0.000000  celldm(3)=   0.000000
     celldm(4)=   0.000000  celldm(5)=   0.000000  celldm(6)=   0.000000

     crystal axes: (cart. coord. in units of alat)
               a(1) = (  -0.500000   0.000000   0.500000 )  
               a(2) = (   0.000000   0.500000   0.500000 )  
               a(3) = (  -0.500000   0.500000   0.000000 )  

     reciprocal axes: (cart. coord. in units 2 pi/alat)
               b(1) = ( -1.000000 -1.000000  1.000000 )  
               b(2) = (  1.000000  1.000000  1.000000 )  
               b(3) = ( -1.000000  1.000000 -1.000000 )  


     PseudoPot. # 1 for Si read from file:
     /home/acedemo/psudo/Si.pbe-mt_fhi.UPF
     MD5 check sum: 259057c2adf9952f9ced37ae3d9e311d
     Pseudo is Norm-conserving, Zval =  4.0
     Generated using FHI98PP, converted with fhi2upf.x v.5.0.2
     Using radial grid of  495 points,  3 beta functions with: 
                l(1) =   0
                l(2) =   1
                l(3) =   3

     atomic species   valence    mass     pseudopotential
        Si             4.00    28.08550     Si( 1.00)

     48 Sym. Ops., with inversion, found (24 have fractional translation)



   Cartesian axes

     site n.     atom                  positions (alat units)
         1           Si  tau(   1) = (   0.0000000   0.0000000   0.0000000  )
         2           Si  tau(   2) = (   0.2500000   0.2500000   0.2500000  )

     number of k points=    51  Marzari-Vanderbilt smearing, width (Ry)=  0.0500
                       cart. coord. in units 2pi/alat
        k(    1) = (   0.5000000   0.5000000   0.5000000), wk =   0.0000000
        k(    2) = (   0.4500000   0.4500000   0.4500000), wk =   0.0014779
        k(    3) = (   0.4000000   0.4000000   0.4000000), wk =   0.0029558
        k(    4) = (   0.3500000   0.3500000   0.3500000), wk =   0.0044337
        k(    5) = (   0.3000000   0.3000000   0.3000000), wk =   0.0059116
        k(    6) = (   0.2500000   0.2500000   0.2500000), wk =   0.0073895
        k(    7) = (   0.2000000   0.2000000   0.2000000), wk =   0.0088674
        k(    8) = (   0.1500000   0.1500000   0.1500000), wk =   0.0103453
        k(    9) = (   0.1000000   0.1000000   0.1000000), wk =   0.0118232
        k(   10) = (   0.0500000   0.0500000   0.0500000), wk =   0.0133011
        k(   11) = (   0.0000000   0.0000000   0.0000000), wk =   0.0147790
        k(   12) = (   0.0000000   0.1000000   0.0000000), wk =   0.0168691
        k(   13) = (   0.0000000   0.2000000   0.0000000), wk =   0.0189591
        k(   14) = (   0.0000000   0.3000000   0.0000000), wk =   0.0210492
        k(   15) = (   0.0000000   0.4000000   0.0000000), wk =   0.0231392
        k(   16) = (   0.0000000   0.5000000   0.0000000), wk =   0.0252293
        k(   17) = (   0.0000000   0.6000000   0.0000000), wk =   0.0273194
        k(   18) = (   0.0000000   0.7000000   0.0000000), wk =   0.0294094
        k(   19) = (   0.0000000   0.8000000   0.0000000), wk =   0.0314995
        k(   20) = (   0.0000000   0.9000000   0.0000000), wk =   0.0335896
        k(   21) = (   0.0000000   1.0000000   0.0000000), wk =   0.0356796
        k(   22) = (   0.0000000   0.9750000   0.0750000), wk =   0.0370621
        k(   23) = (   0.0000000   0.9500000   0.1500000), wk =   0.0384445
        k(   24) = (  -0.0000000   0.9250000   0.2250000), wk =   0.0398270
        k(   25) = (  -0.0000000   0.9000000   0.3000000), wk =   0.0412094
        k(   26) = (   0.0000000   0.8750000   0.3750000), wk =   0.0425919
        k(   27) = (   0.0000000   0.8500000   0.4500000), wk =   0.0439743
        k(   28) = (   0.0000000   0.8250000   0.5250000), wk =   0.0453568
        k(   29) = (  -0.0000000   0.8000000   0.6000000), wk =   0.0467392
        k(   30) = (  -0.0000000   0.7750000   0.6750000), wk =   0.0481217
        k(   31) = (   0.0000000   0.7500000   0.7500000), wk =   0.0495041
        k(   32) = (   0.0000000   0.7250000   0.7750000), wk =   0.0500266
        k(   33) = (   0.0000000   0.7000000   0.8000000), wk =   0.0505491
        k(   34) = (   0.0000000   0.6750000   0.8250000), wk =   0.0510717
        k(   35) = (   0.0000000   0.6500000   0.8500000), wk =   0.0515942
        k(   36) = (   0.0000000   0.6250000   0.8750000), wk =   0.0521167
        k(   37) = (   0.0000000   0.6000000   0.9000000), wk =   0.0526392
        k(   38) = (   0.0000000   0.5750000   0.9250000), wk =   0.0531617
        k(   39) = (   0.0000000   0.5500000   0.9500000), wk =   0.0536842
        k(   40) = (   0.0000000   0.5250000   0.9750000), wk =   0.0542067
        k(   41) = (   0.0000000   0.5000000   1.0000000), wk =   0.0547293
        k(   42) = (   0.0000000   0.4500000   0.9000000), wk =   0.0574942
        k(   43) = (  -0.0000000   0.4000000   0.8000000), wk =   0.0602591
        k(   44) = (  -0.0000000   0.3500000   0.7000000), wk =   0.0630239
        k(   45) = (  -0.0000000   0.3000000   0.6000000), wk =   0.0657888
        k(   46) = (   0.0000000   0.2500000   0.5000000), wk =   0.0685537
        k(   47) = (   0.0000000   0.2000000   0.4000000), wk =   0.0713186
        k(   48) = (   0.0000000   0.1500000   0.3000000), wk =   0.0740835
        k(   49) = (  -0.0000000   0.1000000   0.2000000), wk =   0.0768484
        k(   50) = (  -0.0000000   0.0500000   0.1000000), wk =   0.0796133
        k(   51) = (   0.0000000   0.0000000   0.0000000), wk =   0.0823782

     Dense  grid:    12939 G-vectors     FFT dimensions: (  36,  36,  36)

     Largest allocated arrays     est. size (Mb)     dimensions
        Kohn-Sham Wavefunctions         0.25 Mb     (    1639,   10)
        NL pseudopotentials             0.55 Mb     (    1639,   22)
        Each V/rho on FFT grid          0.71 Mb     (   46656)
        Each G-vector array             0.10 Mb     (   12939)
        G-vector shells                 0.00 Mb     (     180)
     Largest temporary arrays     est. size (Mb)     dimensions
        Auxiliary wavefunctions         1.00 Mb     (    1639,   40)
        Each subspace H/S matrix        0.02 Mb     (      40,   40)
        Each <psi_i|beta_j> matrix      0.00 Mb     (      22,   10)

     The potential is recalculated from file :
     ./out/Si.save/charge-density.dat

     Starting wfc are   32 randomized atomic wfcs

     Band Structure Calculation
     Davidson diagonalization with overlap

     ethr =  2.67E-11,  avg # of iterations = 15.3

     total cpu time spent up to now is       27.7 secs

     End of band structure calculation

          k = 0.5000 0.5000 0.5000 (  1622 PWs)   bands (ev):

    -3.3706  -0.4375   4.9934   4.9934   8.1042  10.1680  10.1680  15.3569
    17.1655  17.1655

          k = 0.4500 0.4500 0.4500 (  1610 PWs)   bands (ev):

    -3.4852  -0.2638   5.0111   5.0111   8.1247  10.1802  10.1802  15.3521
    16.5222  16.5222

          k = 0.4000 0.4000 0.4000 (  1616 PWs)   bands (ev):

    -3.7658   0.1935   5.0639   5.0639   8.1855  10.2103  10.2103  15.2664
    15.6927  15.6927

          k = 0.3500 0.3500 0.3500 (  1610 PWs)   bands (ev):

    -4.1103   0.8304   5.1506   5.1506   8.2847  10.2383  10.2383  14.8487
    14.9703  14.9703

          k = 0.3000 0.3000 0.3000 (  1615 PWs)   bands (ev):

    -4.4556   1.5798   5.2691   5.2691   8.4187  10.2297  10.2297  14.0719
    14.4117  14.4117

          k = 0.2500 0.2500 0.2500 (  1618 PWs)   bands (ev):

    -4.7705   2.4040   5.4151   5.4151   8.5813  10.1453  10.1453  13.1655
    14.0610  14.0610

          k = 0.2000 0.2000 0.2000 (  1606 PWs)   bands (ev):

    -5.0393   3.2763   5.5812   5.5812   8.7622   9.9673   9.9673  12.2237
    13.9346  13.9346

          k = 0.1500 0.1500 0.1500 (  1600 PWs)   bands (ev):

    -5.2539   4.1684   5.7547   5.7547   8.9453   9.7236   9.7236  11.2834
    13.9971  13.9971

          k = 0.1000 0.1000 0.1000 (  1606 PWs)   bands (ev):

    -5.4097   5.0325   5.9147   5.9147   9.1075   9.4753   9.4753  10.3892
    14.1691  14.1691

          k = 0.0500 0.0500 0.0500 (  1630 PWs)   bands (ev):

    -5.5040   5.7571   6.0321   6.0321   9.2161   9.2898   9.2898   9.6540
    14.3468  14.3468

          k = 0.0000 0.0000 0.0000 (  1639 PWs)   bands (ev):

    -5.5356   6.0759   6.0759   6.0759   9.2208   9.2208   9.2208   9.3668
    14.4232  14.4232

          k = 0.0000 0.1000 0.0000 (  1627 PWs)   bands (ev):

    -5.4934   5.7955   5.9423   5.9423   9.1418   9.4077   9.4077   9.6382
    14.1786  14.4711

          k = 0.0000 0.2000 0.0000 (  1599 PWs)   bands (ev):

    -5.3673   5.1380   5.6159   5.6159   8.9313   9.8932   9.8932  10.2278
    13.6386  14.6148

          k = 0.0000 0.3000 0.0000 (  1607 PWs)   bands (ev):

    -5.1580   4.3288   5.2152   5.2152   8.6474  10.5570  10.5570  10.7135
    13.2352  14.8540

          k = 0.0000 0.4000 0.0000 (  1607 PWs)   bands (ev):

    -4.8667   3.4656   4.8128   4.8128   8.3472  10.6310  11.3241  11.3241
    13.4744  15.1887

          k = 0.0000 0.5000 0.0000 (  1612 PWs)   bands (ev):

    -4.4956   2.5867   4.4448   4.4448   8.0730  10.1017  12.1560  12.1560
    14.2625  15.6183

          k = 0.0000 0.6000 0.0000 (  1620 PWs)   bands (ev):

    -4.0472   1.7099   4.1296   4.1296   7.8532   9.4849  13.0325  13.0325
    15.2502  16.1425

          k = 0.0000 0.7000 0.0000 (  1632 PWs)   bands (ev):

    -3.5249   0.8469   3.8774   3.8774   7.7072   8.9182  13.9417  13.9417
    16.2976  16.7605

          k = 0.0000 0.8000 0.0000 (  1624 PWs)   bands (ev):

    -2.9331   0.0075   3.6940   3.6940   7.6484   8.4455  14.8729  14.8729
    17.3490  17.4715

          k = 0.0000 0.9000 0.0000 (  1608 PWs)   bands (ev):

    -2.2771  -0.7989   3.5827   3.5827   7.6866   8.0815  15.7959  15.7959
    18.0646  18.0646

          k = 0.0000 1.0000 0.0000 (  1604 PWs)   bands (ev):

    -1.5632  -1.5632   3.5455   3.5455   7.8292   7.8292  16.4114  16.4114
    17.4373  17.4373

          k = 0.0000 0.9750 0.0750 (  1618 PWs)   bands (ev):

    -1.7393  -1.3723   3.4952   3.5007   7.8959   7.9915  16.0668  16.2448
    17.1715  17.3582

          k = 0.0000 0.9500 0.1500 (  1622 PWs)   bands (ev):

    -1.8927  -1.1781   3.3545   3.3955   8.1795   8.3580  15.1314  15.8728
    16.6850  17.4627

          k =-0.0000 0.9250 0.2250 (  1622 PWs)   bands (ev):

    -2.0185  -0.9965   3.1574   3.2841   8.6403   8.8863  14.0277  15.3233
    16.2772  17.5972

          k =-0.0000 0.9000 0.3000 (  1623 PWs)   bands (ev):

    -2.1139  -0.8466   2.9427   3.2174   9.2345   9.5379  12.9106  14.6674
    15.9583  17.5778

          k = 0.0000 0.8750 0.3750 (  1614 PWs)   bands (ev):

    -2.1774  -0.7462   2.7401   3.2312   9.9268  10.2816  11.8325  13.9856
    15.6734  17.3502

          k = 0.0000 0.8500 0.4500 (  1612 PWs)   bands (ev):

    -2.2086  -0.7050   2.5697   3.3384  10.6898  10.7555  11.1654  13.3180
    15.3958  16.9798

          k = 0.0000 0.8250 0.5250 (  1611 PWs)   bands (ev):

    -2.2078  -0.7201   2.4444   3.5235   9.8699  11.4914  12.0149  12.6946
    15.1161  16.5246

          k =-0.0000 0.8000 0.6000 (  1614 PWs)   bands (ev):

    -2.1754  -0.7795   2.3722   3.7400   9.0910  11.9402  12.4988  12.9455
    14.8345  16.0252

          k =-0.0000 0.7750 0.6750 (  1621 PWs)   bands (ev):

    -2.1119  -0.8689   2.3576   3.9087   8.5243  11.4546  13.2930  13.8985
    14.5648  15.5237

          k = 0.0000 0.7500 0.7500 (  1624 PWs)   bands (ev):

    -2.0177  -0.9777   2.4024   3.9323   8.2635  10.9501  13.9910  14.4732
    14.6558  15.2393

          k = 0.0000 0.7250 0.7750 (  1616 PWs)   bands (ev):

    -2.0120  -0.9810   2.4066   3.9060   8.3082  10.9540  13.8497  14.4694
    14.6140  15.4247

          k = 0.0000 0.7000 0.8000 (  1621 PWs)   bands (ev):

    -1.9948  -0.9912   2.4189   3.8310   8.4386  10.9655  13.5921  14.1374
    14.8698  15.7526

          k = 0.0000 0.6750 0.8250 (  1620 PWs)   bands (ev):

    -1.9661  -1.0089   2.4394   3.7174   8.6450  10.9845  13.3131  13.7812
    15.1457  16.0982

          k = 0.0000 0.6500 0.8500 (  1616 PWs)   bands (ev):

    -1.9261  -1.0350   2.4680   3.5782   8.9155  11.0107  13.0305  13.4220
    15.4243  16.4337

          k = 0.0000 0.6250 0.8750 (  1616 PWs)   bands (ev):

    -1.8746  -1.0709   2.5045   3.4262   9.2380  11.0435  12.7501  13.0660
    15.6998  16.7406

          k = 0.0000 0.6000 0.9000 (  1613 PWs)   bands (ev):

    -1.8118  -1.1182   2.5488   3.2726   9.6023  11.0820  12.4753  12.7162
    15.9694  16.9937

          k = 0.0000 0.5750 0.9250 (  1615 PWs)   bands (ev):

    -1.7376  -1.1783   2.6004   3.1267   9.9997  11.1242  12.2095  12.3752
    16.2307  17.1570

          k = 0.0000 0.5500 0.9500 (  1615 PWs)   bands (ev):

    -1.6522  -1.2527   2.6593   2.9956  10.4215  11.1655  11.9587  12.0466
    16.4811  17.1959

          k = 0.0000 0.5250 0.9750 (  1615 PWs)   bands (ev):

    -1.5556  -1.3424   2.7249   2.8845  10.8514  11.1926  11.7370  11.7430
    16.7174  17.1097

          k = 0.0000 0.5000 1.0000 (  1628 PWs)   bands (ev):

    -1.4479  -1.4479   2.7969   2.7969  11.1648  11.1648  11.5859  11.5859
    16.9347  16.9347

          k = 0.0000 0.4500 0.9000 (  1616 PWs)   bands (ev):

    -1.9572  -0.9506   2.6183   3.1340  10.7042  10.8995  11.2586  12.8537
    15.9365  17.3004

          k =-0.0000 0.4000 0.8000 (  1616 PWs)   bands (ev):

    -2.5455  -0.3657   2.6699   3.5324  10.1750  10.7279  11.0242  14.3916
    14.8759  16.6614

          k =-0.0000 0.3500 0.7000 (  1618 PWs)   bands (ev):

    -3.1550   0.3055   2.9100   3.9683   9.7466  10.6440  10.8879  13.8191
    15.8193  16.0139

          k =-0.0000 0.3000 0.6000 (  1609 PWs)   bands (ev):

    -3.7381   1.0609   3.2940   4.4138   9.4254  10.5515  10.9286  12.8525
    15.0475  17.4682

          k = 0.0000 0.2500 0.5000 (  1610 PWs)   bands (ev):

    -4.2629   1.8967   3.7837   4.8413   9.2116  10.3808  11.1705  11.9601
    14.3907  16.5957

          k = 0.0000 0.2000 0.4000 (  1613 PWs)   bands (ev):

    -4.7098   2.8056   4.3424   5.2293   9.1004  10.1404  11.1495  11.4962
    13.7972  15.3700

          k = 0.0000 0.1500 0.3000 (  1607 PWs)   bands (ev):

    -5.0666   3.7722   4.9278   5.5635   9.0801   9.8509  10.4307  11.5059
    13.3864  14.7123

          k =-0.0000 0.1000 0.2000 (  1600 PWs)   bands (ev):

    -5.3258   4.7582   5.4804   5.8310   9.1250   9.5632   9.8258  10.7384
    13.6581  14.4870

          k =-0.0000 0.0500 0.1000 (  1623 PWs)   bands (ev):

    -5.4829   5.6482   5.9071   6.0111   9.1901   9.3420   9.3889   9.7926
    14.1732  14.4310

          k = 0.0000 0.0000 0.0000 (  1639 PWs)   bands (ev):

    -5.5356   6.0759   6.0759   6.0759   9.2208   9.2208   9.2208   9.3668
    14.4232  14.4232

     Writing output data file Si.save

     init_run     :      0.12s CPU      0.13s WALL (       1 calls)
     electrons    :     24.73s CPU     26.22s WALL (       1 calls)

     Called by init_run:
     wfcinit      :      0.00s CPU      0.00s WALL (       1 calls)
     potinit      :      0.04s CPU      0.04s WALL (       1 calls)

     Called by electrons:
     c_bands      :     24.73s CPU     26.22s WALL (       1 calls)
     v_of_rho     :      0.03s CPU      0.03s WALL (       1 calls)

     Called by c_bands:
     init_us_2    :      0.08s CPU      0.09s WALL (      51 calls)
     cegterg      :     19.06s CPU     20.14s WALL (      55 calls)

     Called by *egterg:
     h_psi        :     20.66s CPU     21.89s WALL (     887 calls)
     g_psi        :      0.05s CPU      0.05s WALL (     781 calls)
     cdiaghg      :      0.39s CPU      0.42s WALL (     832 calls)

     Called by h_psi:
     add_vuspsi   :      0.58s CPU      0.63s WALL (     887 calls)

     General routines
     calbec       :      0.65s CPU      0.70s WALL (     887 calls)
     fft          :      0.01s CPU      0.02s WALL (      10 calls)
     fftw         :     18.35s CPU     19.41s WALL (   14594 calls)
     davcio       :      0.00s CPU      0.00s WALL (      51 calls)

     Parallel routines
     fft_scatter  :      0.45s CPU      0.46s WALL (   14604 calls)

     PWSCF        :    26.08s CPU        27.78s WALL


   This run was terminated on:  20:32:11  13Feb2023            

=------------------------------------------------------------------------------=
   JOB DONE.
=------------------------------------------------------------------------------=
