
     Program PWSCF v.5.1 starts on 13Feb2023 at 20:30:55 

     This program is part of the open-source Quantum ESPRESSO suite
     for quantum simulation of materials; please cite
         "P. Giannozzi et al., J. Phys.:Condens. Matter 21 395502 (2009);
          URL http://www.quantum-espresso.org", 
     in publications or presentations arising from this work. More details at
     http://www.quantum-espresso.org/quote

     Parallel version (MPI), running on     1 processors
     Waiting for input...
     Reading input from standard input

     Current dimensions of program PWSCF are:
     Max number of different atomic species (ntypx) = 10
     Max number of k-points (npk) =  40000
     Max angular momentum in pseudopotentials (lmaxx) =  3

     Atomic positions and unit cell read from directory:
     ./out/Si.save/

               file Si.pbe-mt_fhi.UPF: wavefunction(s)  4f renormalized

     Subspace diagonalization in iterative solution of the eigenvalue problem:
     a serial algorithm will be used


     G-vector sticks info
     --------------------
     sticks:   dense  smooth     PW     G-vecs:    dense   smooth      PW
     Sum         733     733    223                12939    12939    2229



     bravais-lattice index     =            2
     lattice parameter (alat)  =      10.2623  a.u.
     unit-cell volume          =     270.1967 (a.u.)^3
     number of atoms/cell      =            2
     number of atomic types    =            1
     number of electrons       =         6.00
     number of Kohn-Sham states=           10
     kinetic-energy cutoff     =      50.0000  Ry
     charge density cutoff     =     200.0000  Ry
     Exchange-correlation      = PBE ( 1  4  3  4 0)

     celldm(1)=  10.262347  celldm(2)=   0.000000  celldm(3)=   0.000000
     celldm(4)=   0.000000  celldm(5)=   0.000000  celldm(6)=   0.000000

     crystal axes: (cart. coord. in units of alat)
               a(1) = (  -0.500000   0.000000   0.500000 )  
               a(2) = (   0.000000   0.500000   0.500000 )  
               a(3) = (  -0.500000   0.500000   0.000000 )  

     reciprocal axes: (cart. coord. in units 2 pi/alat)
               b(1) = ( -1.000000 -1.000000  1.000000 )  
               b(2) = (  1.000000  1.000000  1.000000 )  
               b(3) = ( -1.000000  1.000000 -1.000000 )  


     PseudoPot. # 1 for Si read from file:
     /home/acedemo/psudo/Si.pbe-mt_fhi.UPF
     MD5 check sum: 259057c2adf9952f9ced37ae3d9e311d
     Pseudo is Norm-conserving, Zval =  4.0
     Generated using FHI98PP, converted with fhi2upf.x v.5.0.2
     Using radial grid of  495 points,  3 beta functions with: 
                l(1) =   0
                l(2) =   1
                l(3) =   3

     atomic species   valence    mass     pseudopotential
        Si             4.00    28.08550     Si( 1.00)

     48 Sym. Ops., with inversion, found (24 have fractional translation)



   Cartesian axes

     site n.     atom                  positions (alat units)
         1           Si  tau(   1) = (   0.0000000   0.0000000   0.0000000  )
         2           Si  tau(   2) = (   0.2500000   0.2500000   0.2500000  )

     number of k points=    72 (tetrahedron method)
                       cart. coord. in units 2pi/alat
        k(    1) = (   0.0000000   0.0000000   0.0000000), wk =   0.0011574
        k(    2) = (  -0.0833333   0.0833333  -0.0833333), wk =   0.0092593
        k(    3) = (  -0.1666667   0.1666667  -0.1666667), wk =   0.0092593
        k(    4) = (  -0.2500000   0.2500000  -0.2500000), wk =   0.0092593
        k(    5) = (  -0.3333333   0.3333333  -0.3333333), wk =   0.0092593
        k(    6) = (  -0.4166667   0.4166667  -0.4166667), wk =   0.0092593
        k(    7) = (   0.5000000  -0.5000000   0.5000000), wk =   0.0046296
        k(    8) = (   0.0000000   0.1666667   0.0000000), wk =   0.0069444
        k(    9) = (  -0.0833333   0.2500000  -0.0833333), wk =   0.0277778
        k(   10) = (  -0.1666667   0.3333333  -0.1666667), wk =   0.0277778
        k(   11) = (  -0.2500000   0.4166667  -0.2500000), wk =   0.0277778
        k(   12) = (  -0.3333333   0.5000000  -0.3333333), wk =   0.0277778
        k(   13) = (   0.5833333  -0.4166667   0.5833333), wk =   0.0277778
        k(   14) = (   0.5000000  -0.3333333   0.5000000), wk =   0.0277778
        k(   15) = (   0.4166667  -0.2500000   0.4166667), wk =   0.0277778
        k(   16) = (   0.3333333  -0.1666667   0.3333333), wk =   0.0277778
        k(   17) = (   0.2500000  -0.0833333   0.2500000), wk =   0.0277778
        k(   18) = (   0.1666667  -0.0000000   0.1666667), wk =   0.0138889
        k(   19) = (   0.0000000   0.3333333   0.0000000), wk =   0.0069444
        k(   20) = (  -0.0833333   0.4166667  -0.0833333), wk =   0.0277778
        k(   21) = (  -0.1666667   0.5000000  -0.1666667), wk =   0.0277778
        k(   22) = (  -0.2500000   0.5833333  -0.2500000), wk =   0.0277778
        k(   23) = (   0.6666667  -0.3333333   0.6666667), wk =   0.0277778
        k(   24) = (   0.5833333  -0.2500000   0.5833333), wk =   0.0277778
        k(   25) = (   0.5000000  -0.1666667   0.5000000), wk =   0.0277778
        k(   26) = (   0.4166667  -0.0833333   0.4166667), wk =   0.0277778
        k(   27) = (   0.3333333   0.0000000   0.3333333), wk =   0.0138889
        k(   28) = (   0.0000000   0.5000000   0.0000000), wk =   0.0069444
        k(   29) = (  -0.0833333   0.5833333  -0.0833333), wk =   0.0277778
        k(   30) = (  -0.1666667   0.6666667  -0.1666667), wk =   0.0277778
        k(   31) = (   0.7500000  -0.2500000   0.7500000), wk =   0.0277778
        k(   32) = (   0.6666667  -0.1666667   0.6666667), wk =   0.0277778
        k(   33) = (   0.5833333  -0.0833333   0.5833333), wk =   0.0277778
        k(   34) = (   0.5000000   0.0000000   0.5000000), wk =   0.0138889
        k(   35) = (   0.0000000   0.6666667   0.0000000), wk =   0.0069444
        k(   36) = (  -0.0833333   0.7500000  -0.0833333), wk =   0.0277778
        k(   37) = (   0.8333333  -0.1666667   0.8333333), wk =   0.0277778
        k(   38) = (   0.7500000  -0.0833333   0.7500000), wk =   0.0277778
        k(   39) = (   0.6666667   0.0000000   0.6666667), wk =   0.0138889
        k(   40) = (   0.0000000   0.8333333   0.0000000), wk =   0.0069444
        k(   41) = (   0.9166667  -0.0833333   0.9166667), wk =   0.0277778
        k(   42) = (   0.8333333   0.0000000   0.8333333), wk =   0.0138889
        k(   43) = (   0.0000000  -1.0000000   0.0000000), wk =   0.0034722
        k(   44) = (  -0.1666667   0.3333333   0.0000000), wk =   0.0277778
        k(   45) = (  -0.2500000   0.4166667  -0.0833333), wk =   0.0555556
        k(   46) = (  -0.3333333   0.5000000  -0.1666667), wk =   0.0555556
        k(   47) = (   0.5833333  -0.4166667   0.7500000), wk =   0.0555556
        k(   48) = (   0.5000000  -0.3333333   0.6666667), wk =   0.0277778
        k(   49) = (  -0.1666667   0.5000000   0.0000000), wk =   0.0277778
        k(   50) = (  -0.2500000   0.5833333  -0.0833333), wk =   0.0555556
        k(   51) = (   0.6666667  -0.3333333   0.8333333), wk =   0.0555556
        k(   52) = (   0.5833333  -0.2500000   0.7500000), wk =   0.0555556
        k(   53) = (   0.5000000  -0.1666667   0.6666667), wk =   0.0555556
        k(   54) = (   0.4166667  -0.0833333   0.5833333), wk =   0.0555556
        k(   55) = (   0.3333333   0.0000000   0.5000000), wk =   0.0277778
        k(   56) = (  -0.1666667   0.6666667  -0.0000000), wk =   0.0277778
        k(   57) = (   0.7500000  -0.2500000   0.9166667), wk =   0.0555556
        k(   58) = (   0.6666667  -0.1666667   0.8333333), wk =   0.0555556
        k(   59) = (   0.5833333  -0.0833333   0.7500000), wk =   0.0555556
        k(   60) = (   0.5000000   0.0000000   0.6666667), wk =   0.0277778
        k(   61) = (   0.8333333  -0.1666667   1.0000000), wk =   0.0277778
        k(   62) = (   0.7500000  -0.0833333   0.9166667), wk =   0.0555556
        k(   63) = (   0.6666667   0.0000000   0.8333333), wk =   0.0277778
        k(   64) = (  -0.1666667  -1.0000000   0.0000000), wk =   0.0138889
        k(   65) = (   0.6666667  -0.3333333   1.0000000), wk =   0.0277778
        k(   66) = (   0.5833333  -0.2500000   0.9166667), wk =   0.0555556
        k(   67) = (   0.5000000  -0.1666667   0.8333333), wk =   0.0277778
        k(   68) = (   0.6666667  -0.1666667   1.0000000), wk =   0.0277778
        k(   69) = (   0.5833333  -0.0833333   0.9166667), wk =   0.0555556
        k(   70) = (   0.5000000   0.0000000   0.8333333), wk =   0.0277778
        k(   71) = (  -0.3333333  -1.0000000   0.0000000), wk =   0.0138889
        k(   72) = (  -0.5000000  -1.0000000   0.0000000), wk =   0.0069444

     Dense  grid:    12939 G-vectors     FFT dimensions: (  36,  36,  36)

     Largest allocated arrays     est. size (Mb)     dimensions
        Kohn-Sham Wavefunctions         0.25 Mb     (    1639,   10)
        NL pseudopotentials             0.55 Mb     (    1639,   22)
        Each V/rho on FFT grid          0.71 Mb     (   46656)
        Each G-vector array             0.10 Mb     (   12939)
        G-vector shells                 0.00 Mb     (     180)
     Largest temporary arrays     est. size (Mb)     dimensions
        Auxiliary wavefunctions         1.00 Mb     (    1639,   40)
        Each subspace H/S matrix        0.02 Mb     (      40,   40)
        Each <psi_i|beta_j> matrix      0.00 Mb     (      22,   10)

     The potential is recalculated from file :
     ./out/Si.save/charge-density.dat

     Starting wfc are   32 randomized atomic wfcs

     Band Structure Calculation
     Davidson diagonalization with overlap

     ethr =  2.67E-11,  avg # of iterations = 17.0

     total cpu time spent up to now is       36.6 secs

     End of band structure calculation

          k = 0.0000 0.0000 0.0000 (  1639 PWs)   bands (ev):

    -5.5356   6.0759   6.0759   6.0759   9.2208   9.2208   9.2208   9.3668
    14.4232  14.4232

          k =-0.0833 0.0833-0.0833 (  1612 PWs)   bands (ev):

    -5.4480   5.2986   5.9602   5.9602   9.1517   9.4034   9.4034  10.1170
    14.2333  14.2333

          k =-0.1667 0.1667-0.1667 (  1591 PWs)   bands (ev):

    -5.1887   3.8711   5.6971   5.6971   8.8853   9.8087   9.8087  11.5946
    13.9595  13.9595

          k =-0.2500 0.2500-0.2500 (  1618 PWs)   bands (ev):

    -4.7705   2.4040   5.4151   5.4151   8.5813  10.1453  10.1453  13.1655
    14.0610  14.0610

          k =-0.3333 0.3333-0.3333 (  1616 PWs)   bands (ev):

    -4.2273   1.0700   5.1867   5.1867   8.3258  10.2415  10.2415  14.6162
    14.7634  14.7634

          k =-0.4167 0.4167-0.4167 (  1616 PWs)   bands (ev):

    -3.6607   0.0166   5.0424   5.0424   8.1608  10.1992  10.1992  15.3163
    15.9610  15.9610

          k = 0.5000-0.5000 0.5000 (  1622 PWs)   bands (ev):

    -3.3706  -0.4375   4.9934   4.9934   8.1042  10.1680  10.1680  15.3569
    17.1655  17.1655

          k = 0.0000 0.1667 0.0000 (  1615 PWs)   bands (ev):

    -5.4186   5.3821   5.7381   5.7381   9.0128   9.7063   9.7063  10.0199
    13.8282  14.5562

          k =-0.0833 0.2500-0.0833 (  1599 PWs)   bands (ev):

    -5.2160   4.2553   5.4247   5.5650   9.0278   9.6754  10.1995  11.1508
    13.4662  14.5588

          k =-0.1667 0.3333-0.1667 (  1610 PWs)   bands (ev):

    -4.8488   2.8462   5.1368   5.2814   9.0426   9.7753  10.6092  12.1069
    13.8541  14.6561

          k =-0.2500 0.4167-0.2500 (  1606 PWs)   bands (ev):

    -4.3413   1.4899   4.9327   4.9624   8.8480  10.0032  10.7296  12.7848
    15.1139  15.2579

          k =-0.3333 0.5000-0.3333 (  1616 PWs)   bands (ev):

    -3.7622   0.3376   4.6916   4.8354   8.6737  10.0724  10.6281  13.8164
    16.0947  16.3663

          k = 0.5833-0.4167 0.5833 (  1615 PWs)   bands (ev):

    -3.3286  -0.3612   4.5077   4.8496   8.5879  10.1125  10.4825  15.0279
    16.0725  17.1289

          k = 0.5000-0.3333 0.5000 (  1616 PWs)   bands (ev):

    -3.4329  -0.2028   4.4302   4.9699   8.6074  10.2169  10.3832  15.2440
    15.6579  16.2895

          k = 0.4167-0.2500 0.4167 (  1611 PWs)   bands (ev):

    -3.9565   0.6915   4.4705   5.1820   8.7316  10.3151  10.3636  14.2161
    14.3711  16.4972

          k = 0.3333-0.1667 0.3333 (  1605 PWs)   bands (ev):

    -4.5247   1.9274   4.6354   5.4598   8.9459  10.1588  10.4020  13.0972
    13.5670  15.5178

          k = 0.2500-0.0833 0.2500 (  1600 PWs)   bands (ev):

    -4.9894   3.3006   4.9308   5.7522   9.2120   9.8155  10.0958  12.0878
    13.3958  14.6063

          k = 0.1667-0.0000 0.1667 (  1592 PWs)   bands (ev):

    -5.3030   4.5750   5.3966   5.9611   9.3921   9.4657   9.5655  10.9722
    13.7234  14.3586

          k = 0.0000 0.3333 0.0000 (  1607 PWs)   bands (ev):

    -5.0699   4.0445   5.0790   5.0790   8.5468  10.7612  10.8036  10.8036
    13.2297  14.9550

          k =-0.0833 0.4167-0.0833 (  1616 PWs)   bands (ev):

    -4.7562   3.0311   4.7614   4.7732   8.5620  10.5055  11.3443  11.3613
    13.9030  15.2061

          k =-0.1667 0.5000-0.1667 (  1611 PWs)   bands (ev):

    -4.2918   1.8136   4.3594   4.5640   8.7886  10.5981  11.3625  11.6091
    15.3591  15.7616

          k =-0.2500 0.5833-0.2500 (  1610 PWs)   bands (ev):

    -3.7228   0.6664   3.9607   4.4749   8.8531  10.7552  11.5327  11.9050
    16.8089  16.8777

          k = 0.6667-0.3333 0.6667 (  1607 PWs)   bands (ev):

    -3.1964  -0.1849   3.6481   4.5114   8.8757  10.7073  11.3297  13.1637
    16.4685  17.0967

          k = 0.5833-0.2500 0.5833 (  1602 PWs)   bands (ev):

    -3.0989  -0.3244   3.4622   4.6674   8.9755  10.7080  11.1319  14.6962
    15.2811  15.4886

          k = 0.5000-0.1667 0.5000 (  1610 PWs)   bands (ev):

    -3.5435   0.3597   3.4315   4.9245   9.1656  10.7847  10.9477  13.9175
    14.1341  16.2493

          k = 0.4167-0.0833 0.4167 (  1613 PWs)   bands (ev):

    -4.1229   1.4167   3.5981   5.2460   9.4044  10.6604  10.8001  12.7773
    13.2816  17.3557

          k = 0.3333 0.0000 0.3333 (  1604 PWs)   bands (ev):

    -4.6264   2.4932   4.0662   5.5621   9.5607  10.1964  10.4126  12.2876
    13.0889  15.7969

          k = 0.0000 0.5000 0.0000 (  1612 PWs)   bands (ev):

    -4.4956   2.5867   4.4448   4.4448   8.0730  10.1017  12.1560  12.1560
    14.2625  15.6183

          k =-0.0833 0.5833-0.0833 (  1617 PWs)   bands (ev):

    -4.0782   1.7163   4.0504   4.2137   8.1484   9.7968  12.4513  12.6733
    15.4938  16.1603

          k =-0.1667 0.6667-0.1667 (  1620 PWs)   bands (ev):

    -3.5347   0.7515   3.5110   4.1073   8.3967  10.1744  12.3377  12.7372
    17.1512  17.1775

          k = 0.7500-0.2500 0.7500 (  1617 PWs)   bands (ev):

    -2.9606  -0.0979   3.0254   4.1342   8.5124  11.2830  12.1805  12.5418
    16.8538  17.1432

          k = 0.6667-0.1667 0.6667 (  1607 PWs)   bands (ev):

    -2.6800  -0.4607   2.7046   4.2905   8.6706  12.0630  12.2800  12.7981
    15.3095  15.4676

          k = 0.5833-0.0833 0.5833 (  1611 PWs)   bands (ev):

    -3.0184  -0.0184   2.6179   4.5591   8.9346  11.9604  12.0097  13.7622
    14.1052  14.5357

          k = 0.5000 0.0000 0.5000 (  1604 PWs)   bands (ev):

    -3.5933   0.7527   2.8738   4.9026   9.2534  11.3991  11.6915  12.7605
    13.3645  16.2875

          k = 0.0000 0.6667 0.0000 (  1624 PWs)   bands (ev):

    -3.7069   1.1324   3.9541   3.9541   7.7468   9.0979  13.6356  13.6356
    15.9460  16.5441

          k =-0.0833 0.7500-0.0833 (  1618 PWs)   bands (ev):

    -3.1975   0.3735   3.5606   3.8183   7.9067   8.9340  13.9623  14.0711
    17.2420  17.3897

          k = 0.8333-0.1667 0.8333 (  1619 PWs)   bands (ev):

    -2.6090  -0.3623   2.9642   3.8189   8.1233   9.6353  13.8808  13.9853
    17.0901  17.2715

          k = 0.7500-0.0833 0.7500 (  1620 PWs)   bands (ev):

    -2.1954  -0.8093   2.4750   3.9550   8.2927  10.9871  13.6700  13.7469
    15.3836  15.6134

          k = 0.6667 0.0000 0.6667 (  1612 PWs)   bands (ev):

    -2.4600  -0.5251   2.3024   4.2129   8.5721  12.6109  13.0371  13.4925
    13.9118  14.4661

          k = 0.0000 0.8333 0.0000 (  1628 PWs)   bands (ev):

    -2.7213  -0.2655   3.6488   3.6488   7.6499   8.3118  15.1846  15.1846
    17.6941  17.7289

          k = 0.9167-0.0833 0.9167 (  1622 PWs)   bands (ev):

    -2.1388  -0.9290   3.3143   3.6154   7.8667   8.3872  15.4958  15.5355
    17.2779  17.4169

          k = 0.8333 0.0000 0.8333 (  1614 PWs)   bands (ev):

    -1.7364  -1.3025   2.7806   3.7208   8.0268   9.4496  14.9924  15.4272
    15.5826  16.1007

          k = 0.0000-1.0000 0.0000 (  1604 PWs)   bands (ev):

    -1.5632  -1.5632   3.5455   3.5455   7.8292   7.8292  16.4114  16.4114
    17.4373  17.4373

          k =-0.1667 0.3333 0.0000 (  1603 PWs)   bands (ev):

    -4.9582   3.4452   4.7329   5.4588   9.0780   9.9502  10.6592  11.5860
    13.4608  14.8675

          k =-0.2500 0.4167-0.0833 (  1607 PWs)   bands (ev):

    -4.5420   2.2752   4.2442   5.2179   9.3097  10.0050  11.1031  11.7823
    13.9649  15.7585

          k =-0.3333 0.5000-0.1667 (  1604 PWs)   bands (ev):

    -4.0001   1.0624   3.9716   4.9315   9.2802  10.1080  11.2246  12.3764
    14.8523  17.1465

          k = 0.5833-0.4167 0.7500 (  1612 PWs)   bands (ev):

    -3.4306   0.0570   3.8353   4.7149   9.1834  10.0724  11.1899  13.5143
    16.0207  16.3627

          k = 0.5000-0.3333 0.6667 (  1602 PWs)   bands (ev):

    -3.1352  -0.3879   3.7952   4.6345   9.1446  10.0374  11.1598  14.9029
    14.9661  16.9153

          k =-0.1667 0.5000 0.0000 (  1617 PWs)   bands (ev):

    -4.3916   2.2349   4.1028   4.6679   8.6278  10.3750  11.3918  12.0641
    14.5974  15.9312

          k =-0.2500 0.5833-0.0833 (  1611 PWs)   bands (ev):

    -3.8867   1.2416   3.6195   4.4231   8.9573  10.5805  11.1900  12.4918
    15.3929  17.3642

          k = 0.6667-0.3333 0.8333 (  1617 PWs)   bands (ev):

    -3.3052   0.2710   3.2803   4.2412   9.1067  10.8666  11.5831  12.5346
    16.5551  16.6145

          k = 0.5833-0.2500 0.7500 (  1607 PWs)   bands (ev):

    -2.8628  -0.3605   3.0522   4.2234   9.2201  10.6534  12.4322  13.0014
    14.9416  17.2706

          k = 0.5000-0.1667 0.6667 (  1605 PWs)   bands (ev):

    -2.9836  -0.1937   2.9577   4.3718   9.4153  10.5043  12.3479  13.3934
    14.6449  15.9269

          k = 0.4167-0.0833 0.5833 (  1610 PWs)   bands (ev):

    -3.5203   0.5998   3.0551   4.6454   9.6811  10.3585  12.0108  12.3684
    14.6654  16.3491

          k = 0.3333 0.0000 0.5000 (  1606 PWs)   bands (ev):

    -4.0851   1.5218   3.4511   4.9711   9.9115   9.9367  11.5858  11.8333
    14.0061  17.4384

          k =-0.1667 0.6667-0.0000 (  1626 PWs)   bands (ev):

    -3.6164   0.9698   3.6311   3.9875   8.3076   9.5181  12.5370  13.5962
    16.0626  17.3854

          k = 0.7500-0.2500 0.9167 (  1621 PWs)   bands (ev):

    -3.0466   0.1689   3.1349   3.8051   8.6628   9.9381  12.3034  13.9986
    16.8153  17.0096

          k = 0.6667-0.1667 0.8333 (  1616 PWs)   bands (ev):

    -2.5098  -0.4904   2.6856   3.8101   8.8330  11.1404  12.0459  13.9596
    15.0705  17.3995

          k = 0.5833-0.0833 0.7500 (  1614 PWs)   bands (ev):

    -2.4571  -0.5455   2.4400   3.9837   9.0583  11.7622  12.7542  13.3380
    13.9108  15.9188

          k = 0.5000 0.0000 0.6667 (  1621 PWs)   bands (ev):

    -2.9504   0.0114   2.5235   4.2848   9.3813  11.3110  12.2514  13.3510
    14.5557  14.8668

          k = 0.8333-0.1667 1.0000 (  1617 PWs)   bands (ev):

    -2.6538  -0.3080   3.3652   3.5339   8.1988   8.7887  13.9172  15.1764
    17.1276  17.5403

          k = 0.7500-0.0833 0.9167 (  1620 PWs)   bands (ev):

    -2.0683  -0.9287   2.8618   3.4979   8.5133   9.5476  13.6604  15.0844
    15.7515  17.3888

          k = 0.6667 0.0000 0.8333 (  1620 PWs)   bands (ev):

    -1.9541  -1.0166   2.4481   3.6732   8.7287  10.9924  13.2189  13.6614
    15.2387  16.2121

          k =-0.1667-1.0000 0.0000 (  1622 PWs)   bands (ev):

    -1.5358  -1.5358   3.3282   3.3282   8.3494   8.3494  15.3748  15.3748
    17.0022  17.0022

          k = 0.6667-0.3333 1.0000 (  1610 PWs)   bands (ev):

    -3.3542   0.5481   3.0240   4.1172   9.6275  10.6211  10.8764  13.4894
    15.5500  16.5315

          k = 0.5833-0.2500 0.9167 (  1611 PWs)   bands (ev):

    -2.7761  -0.1803   2.7091   3.8346  10.0347  10.5247  11.4977  13.9399
    14.7300  16.4694

          k = 0.5000-0.1667 0.8333 (  1610 PWs)   bands (ev):

    -2.4541  -0.5654   2.6180   3.7245  10.2162  10.2775  12.8395  13.1331
    14.0276  17.5646

          k = 0.6667-0.1667 1.0000 (  1618 PWs)   bands (ev):

    -2.4677  -0.4541   2.8461   3.3922   9.5194  10.0143  11.9891  14.8425
    15.3012  17.1594

          k = 0.5833-0.0833 0.9167 (  1615 PWs)   bands (ev):

    -1.9893  -0.9374   2.5879   3.2609   9.8843  11.1377  11.7222  13.1280
    15.6305  17.4930

          k = 0.5000 0.0000 0.8333 (  1612 PWs)   bands (ev):

    -2.2116  -0.7094   2.4806   3.4553  10.1619  11.2236  11.7160  12.8942
    15.2097  16.6831

          k =-0.3333-1.0000 0.0000 (  1618 PWs)   bands (ev):

    -1.4782  -1.4782   2.9596   2.9596   9.6378   9.6378  13.3600  13.3600
    16.9391  16.9391

          k =-0.5000-1.0000 0.0000 (  1628 PWs)   bands (ev):

    -1.4479  -1.4479   2.7969   2.7969  11.1648  11.1648  11.5859  11.5859
    16.9347  16.9347

     the Fermi energy is     3.9985 ev

     Writing output data file Si.save

     init_run     :      0.34s CPU      0.36s WALL (       1 calls)
     electrons    :     34.32s CPU     35.78s WALL (       1 calls)

     Called by init_run:
     wfcinit      :      0.00s CPU      0.00s WALL (       1 calls)
     potinit      :      0.09s CPU      0.11s WALL (       1 calls)

     Called by electrons:
     c_bands      :     34.21s CPU     35.67s WALL (       1 calls)
     v_of_rho     :      0.08s CPU      0.09s WALL (       1 calls)

     Called by c_bands:
     init_us_2    :      0.10s CPU      0.11s WALL (      72 calls)
     cegterg      :     26.69s CPU     27.89s WALL (      82 calls)

     Called by *egterg:
     h_psi        :     28.72s CPU     29.99s WALL (    1379 calls)
     g_psi        :      0.08s CPU      0.08s WALL (    1225 calls)
     cdiaghg      :      0.57s CPU      0.59s WALL (    1297 calls)

     Called by h_psi:
     add_vuspsi   :      0.80s CPU      0.83s WALL (    1379 calls)

     General routines
     calbec       :      0.90s CPU      0.93s WALL (    1379 calls)
     fft          :      0.04s CPU      0.05s WALL (      10 calls)
     fftw         :     25.56s CPU     26.73s WALL (   21168 calls)
     davcio       :      0.01s CPU      0.02s WALL (      72 calls)

     Parallel routines
     fft_scatter  :      0.65s CPU      0.69s WALL (   21178 calls)

     PWSCF        :    36.44s CPU        37.99s WALL


   This run was terminated on:  20:31:33  13Feb2023            

=------------------------------------------------------------------------------=
   JOB DONE.
=------------------------------------------------------------------------------=
