
     Program PWSCF v.5.1 starts on 13Feb2023 at 20:30:33 

     This program is part of the open-source Quantum ESPRESSO suite
     for quantum simulation of materials; please cite
         "P. Giannozzi et al., J. Phys.:Condens. Matter 21 395502 (2009);
          URL http://www.quantum-espresso.org", 
     in publications or presentations arising from this work. More details at
     http://www.quantum-espresso.org/quote

     Parallel version (MPI), running on     1 processors
     Waiting for input...
     Reading input from standard input

     Current dimensions of program PWSCF are:
     Max number of different atomic species (ntypx) = 10
     Max number of k-points (npk) =  40000
     Max angular momentum in pseudopotentials (lmaxx) =  3
               file Si.pbe-mt_fhi.UPF: wavefunction(s)  4f renormalized

     Subspace diagonalization in iterative solution of the eigenvalue problem:
     a serial algorithm will be used


     G-vector sticks info
     --------------------
     sticks:   dense  smooth     PW     G-vecs:    dense   smooth      PW
     Sum         733     733    211                12939    12939    2109



     bravais-lattice index     =            2
     lattice parameter (alat)  =      10.2623  a.u.
     unit-cell volume          =     270.1967 (a.u.)^3
     number of atoms/cell      =            2
     number of atomic types    =            1
     number of electrons       =         6.00
     number of Kohn-Sham states=           10
     kinetic-energy cutoff     =      50.0000  Ry
     charge density cutoff     =     200.0000  Ry
     convergence threshold     =      1.6E-09
     mixing beta               =       0.3000
     number of iterations used =            8  plain     mixing
     Exchange-correlation      = PBE ( 1  4  3  4 0)

     celldm(1)=  10.262347  celldm(2)=   0.000000  celldm(3)=   0.000000
     celldm(4)=   0.000000  celldm(5)=   0.000000  celldm(6)=   0.000000

     crystal axes: (cart. coord. in units of alat)
               a(1) = (  -0.500000   0.000000   0.500000 )  
               a(2) = (   0.000000   0.500000   0.500000 )  
               a(3) = (  -0.500000   0.500000   0.000000 )  

     reciprocal axes: (cart. coord. in units 2 pi/alat)
               b(1) = ( -1.000000 -1.000000  1.000000 )  
               b(2) = (  1.000000  1.000000  1.000000 )  
               b(3) = ( -1.000000  1.000000 -1.000000 )  


     PseudoPot. # 1 for Si read from file:
     /home/acedemo/psudo/Si.pbe-mt_fhi.UPF
     MD5 check sum: 259057c2adf9952f9ced37ae3d9e311d
     Pseudo is Norm-conserving, Zval =  4.0
     Generated using FHI98PP, converted with fhi2upf.x v.5.0.2
     Using radial grid of  495 points,  3 beta functions with: 
                l(1) =   0
                l(2) =   1
                l(3) =   3

     atomic species   valence    mass     pseudopotential
        Si             4.00    28.08550     Si( 1.00)

     48 Sym. Ops., with inversion, found (24 have fractional translation)



   Cartesian axes

     site n.     atom                  positions (alat units)
         1           Si  tau(   1) = (   0.0000000   0.0000000   0.0000000  )
         2           Si  tau(   2) = (   0.2500000   0.2500000   0.2500000  )

     number of k points=    10  Marzari-Vanderbilt smearing, width (Ry)=  0.0500
                       cart. coord. in units 2pi/alat
        k(    1) = (   0.0000000   0.0000000   0.0000000), wk =   0.0160000
        k(    2) = (  -0.2000000   0.2000000  -0.2000000), wk =   0.1280000
        k(    3) = (  -0.4000000   0.4000000  -0.4000000), wk =   0.1280000
        k(    4) = (   0.0000000   0.4000000   0.0000000), wk =   0.0960000
        k(    5) = (  -0.2000000   0.6000000  -0.2000000), wk =   0.3840000
        k(    6) = (   0.6000000  -0.2000000   0.6000000), wk =   0.3840000
        k(    7) = (   0.4000000   0.0000000   0.4000000), wk =   0.1920000
        k(    8) = (   0.0000000   0.8000000   0.0000000), wk =   0.0960000
        k(    9) = (   0.8000000   0.0000000   0.8000000), wk =   0.1920000
        k(   10) = (   0.6000000  -0.2000000   1.0000000), wk =   0.3840000

     Dense  grid:    12939 G-vectors     FFT dimensions: (  36,  36,  36)

     Largest allocated arrays     est. size (Mb)     dimensions
        Kohn-Sham Wavefunctions         0.25 Mb     (    1639,   10)
        NL pseudopotentials             0.55 Mb     (    1639,   22)
        Each V/rho on FFT grid          0.71 Mb     (   46656)
        Each G-vector array             0.10 Mb     (   12939)
        G-vector shells                 0.00 Mb     (     180)
     Largest temporary arrays     est. size (Mb)     dimensions
        Auxiliary wavefunctions         1.00 Mb     (    1639,   40)
        Each subspace H/S matrix        0.02 Mb     (      40,   40)
        Each <psi_i|beta_j> matrix      0.00 Mb     (      22,   10)
        Arrays for rho mixing           5.70 Mb     (   46656,    8)

     Initial potential from superposition of free atoms

     starting charge    7.99859, renormalised to    6.00000
     Starting wfc are   32 randomized atomic wfcs

     total cpu time spent up to now is        1.4 secs

     per-process dynamical memory:    15.9 Mb

     Self-consistent Calculation

     iteration #  1     ecut=    50.00 Ry     beta=0.30
     Davidson diagonalization with overlap
     ethr =  1.00E-02,  avg # of iterations =  2.2

     Threshold (ethr) on eigenvalues was too large:
     Diagonalizing with lowered threshold

     Davidson diagonalization with overlap
     ethr =  8.23E-04,  avg # of iterations =  1.0

     total cpu time spent up to now is        3.4 secs

     total energy              =     -16.45661562 Ry
     Harris-Foulkes estimate   =     -16.46277892 Ry
     estimated scf accuracy    <       0.04887855 Ry

     iteration #  2     ecut=    50.00 Ry     beta=0.30
     Davidson diagonalization with overlap
     ethr =  8.15E-04,  avg # of iterations =  1.0

     total cpu time spent up to now is        4.4 secs

     total energy              =     -16.45299213 Ry
     Harris-Foulkes estimate   =     -16.45688503 Ry
     estimated scf accuracy    <       0.02137787 Ry

     iteration #  3     ecut=    50.00 Ry     beta=0.30
     Davidson diagonalization with overlap
     ethr =  3.56E-04,  avg # of iterations =  1.0

     total cpu time spent up to now is        5.5 secs

     total energy              =     -16.45389001 Ry
     Harris-Foulkes estimate   =     -16.45381348 Ry
     estimated scf accuracy    <       0.00012058 Ry

     iteration #  4     ecut=    50.00 Ry     beta=0.30
     Davidson diagonalization with overlap
     ethr =  2.01E-06,  avg # of iterations =  3.4

     total cpu time spent up to now is        6.9 secs

     total energy              =     -16.45391382 Ry
     Harris-Foulkes estimate   =     -16.45391535 Ry
     estimated scf accuracy    <       0.00001473 Ry

     iteration #  5     ecut=    50.00 Ry     beta=0.30
     Davidson diagonalization with overlap
     ethr =  2.46E-07,  avg # of iterations =  1.0

     total cpu time spent up to now is        8.0 secs

     total energy              =     -16.45391527 Ry
     Harris-Foulkes estimate   =     -16.45391472 Ry
     estimated scf accuracy    <       0.00000010 Ry

     iteration #  6     ecut=    50.00 Ry     beta=0.30
     Davidson diagonalization with overlap
     ethr =  1.71E-09,  avg # of iterations =  2.7

     total cpu time spent up to now is        9.0 secs

     total energy              =     -16.45391546 Ry
     Harris-Foulkes estimate   =     -16.45391535 Ry
     estimated scf accuracy    <       0.00000002 Ry

     iteration #  7     ecut=    50.00 Ry     beta=0.30
     Davidson diagonalization with overlap
     ethr =  2.64E-10,  avg # of iterations =  2.0

     total cpu time spent up to now is       10.3 secs

     End of self-consistent calculation

          k = 0.0000 0.0000 0.0000 (  1639 PWs)   bands (ev):

    -5.5355   6.0760   6.0760   6.0760   9.2208   9.2208   9.2208   9.3669
    14.4232  14.4232

          k =-0.2000 0.2000-0.2000 (  1606 PWs)   bands (ev):

    -5.0393   3.2764   5.5813   5.5813   8.7622   9.9674   9.9674  12.2238
    13.9346  13.9346

          k =-0.4000 0.4000-0.4000 (  1616 PWs)   bands (ev):

    -3.7657   0.1936   5.0639   5.0639   8.1855  10.2103  10.2103  15.2664
    15.6928  15.6928

          k = 0.0000 0.4000 0.0000 (  1607 PWs)   bands (ev):

    -4.8667   3.4657   4.8128   4.8128   8.3473  10.6310  11.3241  11.3241
    13.4744  15.1887

          k =-0.2000 0.6000-0.2000 (  1619 PWs)   bands (ev):

    -3.7831   0.9587   3.8094   4.3310   8.6760  10.8829  11.4810  12.0158
    16.7324  16.7326

          k = 0.6000-0.2000 0.6000 (  1596 PWs)   bands (ev):

    -2.9848  -0.3043   3.0860   4.5631   8.9290  11.1914  11.5086  14.2592
    14.9975  15.1584

          k = 0.4000 0.0000 0.4000 (  1610 PWs)   bands (ev):

    -4.2472   1.7458   3.5439   5.3196   9.5159  10.6222  10.8718  12.4155
    13.0855  17.0854

          k = 0.0000 0.8000 0.0000 (  1624 PWs)   bands (ev):

    -2.9331   0.0075   3.6940   3.6940   7.6484   8.4455  14.8729  14.8729
    17.3490  17.4715

          k = 0.8000 0.0000 0.8000 (  1622 PWs)   bands (ev):

    -1.8291  -1.1880   2.6014   3.7963   8.1116  10.0195  14.5903  15.1210
    15.1294  15.7497

          k = 0.6000-0.2000 1.0000 (  1616 PWs)   bands (ev):

    -2.5454  -0.3657   2.6699   3.5325  10.1750  10.7279  11.0242  14.3917
    14.8760  16.6615

     the Fermi energy is     3.9544 ev

!    total energy              =     -16.45391548 Ry
     Harris-Foulkes estimate   =     -16.45391548 Ry
     estimated scf accuracy    <          3.2E-10 Ry

     The total energy is the sum of the following terms:

     one-electron contribution =       2.98942205 Ry
     hartree contribution      =       0.72104691 Ry
     xc contribution           =      -3.36464378 Ry
     ewald contribution        =     -16.79708774 Ry
     smearing contrib. (-TS)   =      -0.00265292 Ry

     convergence has been achieved in   7 iterations

     Forces acting on atoms (Ry/au):

     atom    1 type  1   force =    -0.00000000    0.00000000   -0.00000000
     atom    2 type  1   force =     0.00000000   -0.00000000    0.00000000

     Total force =     0.000000     Total SCF correction =     0.000000


     entering subroutine stress ...

          total   stress  (Ry/bohr**3)                   (kbar)     P= -724.91
  -0.00492784   0.00000000   0.00000000       -724.91      0.00      0.00
  -0.00000000  -0.00492784  -0.00000000         -0.00   -724.91     -0.00
  -0.00000000  -0.00000000  -0.00492784         -0.00     -0.00   -724.91


     Writing output data file Si.save

     init_run     :      1.23s CPU      1.34s WALL (       1 calls)
     electrons    :      7.98s CPU      8.92s WALL (       1 calls)
     forces       :      0.13s CPU      0.13s WALL (       1 calls)
     stress       :      0.73s CPU      0.75s WALL (       1 calls)

     Called by init_run:
     wfcinit      :      1.08s CPU      1.16s WALL (       1 calls)
     potinit      :      0.05s CPU      0.05s WALL (       1 calls)

     Called by electrons:
     c_bands      :      6.10s CPU      6.91s WALL (       8 calls)
     sum_band     :      1.46s CPU      1.56s WALL (       8 calls)
     v_of_rho     :      0.43s CPU      0.46s WALL (       8 calls)
     mix_rho      :      0.02s CPU      0.02s WALL (       8 calls)

     Called by c_bands:
     init_us_2    :      0.33s CPU      0.35s WALL (     190 calls)
     cegterg      :      5.85s CPU      6.65s WALL (      80 calls)

     Called by *egterg:
     h_psi        :      6.25s CPU      7.05s WALL (     233 calls)
     g_psi        :      0.01s CPU      0.01s WALL (     143 calls)
     cdiaghg      :      0.06s CPU      0.06s WALL (     213 calls)

     Called by h_psi:
     add_vuspsi   :      0.17s CPU      0.19s WALL (     233 calls)

     General routines
     calbec       :      0.23s CPU      0.26s WALL (     253 calls)
     fft          :      0.19s CPU      0.21s WALL (      97 calls)
     fftw         :      6.60s CPU      7.40s WALL (    5074 calls)
     davcio       :      0.00s CPU      0.00s WALL (      10 calls)

     Parallel routines
     fft_scatter  :      0.19s CPU      0.20s WALL (    5171 calls)

     PWSCF        :    10.17s CPU        11.26s WALL


   This run was terminated on:  20:30:44  13Feb2023            

=------------------------------------------------------------------------------=
   JOB DONE.
=------------------------------------------------------------------------------=
