
     Program PWSCF v.5.1 starts on 13Feb2023 at 17:43:16 

     This program is part of the open-source Quantum ESPRESSO suite
     for quantum simulation of materials; please cite
         "P. Giannozzi et al., J. Phys.:Condens. Matter 21 395502 (2009);
          URL http://www.quantum-espresso.org", 
     in publications or presentations arising from this work. More details at
     http://www.quantum-espresso.org/quote

     Parallel version (MPI), running on     1 processors
     Waiting for input...
     Reading input from standard input

     Current dimensions of program PWSCF are:
     Max number of different atomic species (ntypx) = 10
     Max number of k-points (npk) =  40000
     Max angular momentum in pseudopotentials (lmaxx) =  3

     Atomic positions and unit cell read from directory:
     ./out/Si.save/

               file Si.pbe-mt_fhi.UPF: wavefunction(s)  4f renormalized

     Subspace diagonalization in iterative solution of the eigenvalue problem:
     a serial algorithm will be used


     G-vector sticks info
     --------------------
     sticks:   dense  smooth     PW     G-vecs:    dense   smooth      PW
     Sum         733     733    211                12939    12939    2109



     bravais-lattice index     =            2
     lattice parameter (alat)  =      10.2623  a.u.
     unit-cell volume          =     270.1967 (a.u.)^3
     number of atoms/cell      =            2
     number of atomic types    =            1
     number of electrons       =        10.00
     number of Kohn-Sham states=           10
     kinetic-energy cutoff     =      50.0000  Ry
     charge density cutoff     =     200.0000  Ry
     Exchange-correlation      = PBE ( 1  4  3  4 0)

     celldm(1)=  10.262347  celldm(2)=   0.000000  celldm(3)=   0.000000
     celldm(4)=   0.000000  celldm(5)=   0.000000  celldm(6)=   0.000000

     crystal axes: (cart. coord. in units of alat)
               a(1) = (  -0.500000   0.000000   0.500000 )  
               a(2) = (   0.000000   0.500000   0.500000 )  
               a(3) = (  -0.500000   0.500000   0.000000 )  

     reciprocal axes: (cart. coord. in units 2 pi/alat)
               b(1) = ( -1.000000 -1.000000  1.000000 )  
               b(2) = (  1.000000  1.000000  1.000000 )  
               b(3) = ( -1.000000  1.000000 -1.000000 )  


     PseudoPot. # 1 for Si read from file:
     /home/acedemo/psudo/Si.pbe-mt_fhi.UPF
     MD5 check sum: 259057c2adf9952f9ced37ae3d9e311d
     Pseudo is Norm-conserving, Zval =  4.0
     Generated using FHI98PP, converted with fhi2upf.x v.5.0.2
     Using radial grid of  495 points,  3 beta functions with: 
                l(1) =   0
                l(2) =   1
                l(3) =   3

     atomic species   valence    mass     pseudopotential
        Si             4.00    28.08550     Si( 1.00)

     48 Sym. Ops., with inversion, found (24 have fractional translation)



   Cartesian axes

     site n.     atom                  positions (alat units)
         1           Si  tau(   1) = (   0.0000000   0.0000000   0.0000000  )
         2           Si  tau(   2) = (   0.2500000   0.2500000   0.2500000  )

     number of k points=    51  Marzari-Vanderbilt smearing, width (Ry)=  0.0500
                       cart. coord. in units 2pi/alat
        k(    1) = (   0.5000000   0.5000000   0.5000000), wk =   0.0000000
        k(    2) = (   0.4500000   0.4500000   0.4500000), wk =   0.0014779
        k(    3) = (   0.4000000   0.4000000   0.4000000), wk =   0.0029558
        k(    4) = (   0.3500000   0.3500000   0.3500000), wk =   0.0044337
        k(    5) = (   0.3000000   0.3000000   0.3000000), wk =   0.0059116
        k(    6) = (   0.2500000   0.2500000   0.2500000), wk =   0.0073895
        k(    7) = (   0.2000000   0.2000000   0.2000000), wk =   0.0088674
        k(    8) = (   0.1500000   0.1500000   0.1500000), wk =   0.0103453
        k(    9) = (   0.1000000   0.1000000   0.1000000), wk =   0.0118232
        k(   10) = (   0.0500000   0.0500000   0.0500000), wk =   0.0133011
        k(   11) = (   0.0000000   0.0000000   0.0000000), wk =   0.0147790
        k(   12) = (   0.0000000   0.1000000   0.0000000), wk =   0.0168691
        k(   13) = (   0.0000000   0.2000000   0.0000000), wk =   0.0189591
        k(   14) = (   0.0000000   0.3000000   0.0000000), wk =   0.0210492
        k(   15) = (   0.0000000   0.4000000   0.0000000), wk =   0.0231392
        k(   16) = (   0.0000000   0.5000000   0.0000000), wk =   0.0252293
        k(   17) = (   0.0000000   0.6000000   0.0000000), wk =   0.0273194
        k(   18) = (   0.0000000   0.7000000   0.0000000), wk =   0.0294094
        k(   19) = (   0.0000000   0.8000000   0.0000000), wk =   0.0314995
        k(   20) = (   0.0000000   0.9000000   0.0000000), wk =   0.0335896
        k(   21) = (   0.0000000   1.0000000   0.0000000), wk =   0.0356796
        k(   22) = (   0.0000000   0.9750000   0.0750000), wk =   0.0370621
        k(   23) = (   0.0000000   0.9500000   0.1500000), wk =   0.0384445
        k(   24) = (  -0.0000000   0.9250000   0.2250000), wk =   0.0398270
        k(   25) = (  -0.0000000   0.9000000   0.3000000), wk =   0.0412094
        k(   26) = (   0.0000000   0.8750000   0.3750000), wk =   0.0425919
        k(   27) = (   0.0000000   0.8500000   0.4500000), wk =   0.0439743
        k(   28) = (   0.0000000   0.8250000   0.5250000), wk =   0.0453568
        k(   29) = (  -0.0000000   0.8000000   0.6000000), wk =   0.0467392
        k(   30) = (  -0.0000000   0.7750000   0.6750000), wk =   0.0481217
        k(   31) = (   0.0000000   0.7500000   0.7500000), wk =   0.0495041
        k(   32) = (   0.0000000   0.7250000   0.7750000), wk =   0.0500266
        k(   33) = (   0.0000000   0.7000000   0.8000000), wk =   0.0505491
        k(   34) = (   0.0000000   0.6750000   0.8250000), wk =   0.0510717
        k(   35) = (   0.0000000   0.6500000   0.8500000), wk =   0.0515942
        k(   36) = (   0.0000000   0.6250000   0.8750000), wk =   0.0521167
        k(   37) = (   0.0000000   0.6000000   0.9000000), wk =   0.0526392
        k(   38) = (   0.0000000   0.5750000   0.9250000), wk =   0.0531617
        k(   39) = (   0.0000000   0.5500000   0.9500000), wk =   0.0536842
        k(   40) = (   0.0000000   0.5250000   0.9750000), wk =   0.0542067
        k(   41) = (   0.0000000   0.5000000   1.0000000), wk =   0.0547293
        k(   42) = (   0.0000000   0.4500000   0.9000000), wk =   0.0574942
        k(   43) = (  -0.0000000   0.4000000   0.8000000), wk =   0.0602591
        k(   44) = (  -0.0000000   0.3500000   0.7000000), wk =   0.0630239
        k(   45) = (  -0.0000000   0.3000000   0.6000000), wk =   0.0657888
        k(   46) = (   0.0000000   0.2500000   0.5000000), wk =   0.0685537
        k(   47) = (   0.0000000   0.2000000   0.4000000), wk =   0.0713186
        k(   48) = (   0.0000000   0.1500000   0.3000000), wk =   0.0740835
        k(   49) = (  -0.0000000   0.1000000   0.2000000), wk =   0.0768484
        k(   50) = (  -0.0000000   0.0500000   0.1000000), wk =   0.0796133
        k(   51) = (   0.0000000   0.0000000   0.0000000), wk =   0.0823782

     Dense  grid:    12939 G-vectors     FFT dimensions: (  36,  36,  36)

     Largest allocated arrays     est. size (Mb)     dimensions
        Kohn-Sham Wavefunctions         0.25 Mb     (    1639,   10)
        NL pseudopotentials             0.55 Mb     (    1639,   22)
        Each V/rho on FFT grid          0.71 Mb     (   46656)
        Each G-vector array             0.10 Mb     (   12939)
        G-vector shells                 0.00 Mb     (     180)
     Largest temporary arrays     est. size (Mb)     dimensions
        Auxiliary wavefunctions         1.00 Mb     (    1639,   40)
        Each subspace H/S matrix        0.02 Mb     (      40,   40)
        Each <psi_i|beta_j> matrix      0.00 Mb     (      22,   10)

     The potential is recalculated from file :
     ./out/Si.save/charge-density.dat

     Starting wfc are   32 randomized atomic wfcs

     Band Structure Calculation
     Davidson diagonalization with overlap

     ethr =  1.60E-11,  avg # of iterations = 18.4

     total cpu time spent up to now is       29.8 secs

     End of band structure calculation

          k = 0.5000 0.5000 0.5000 (  1622 PWs)   bands (ev):

    -3.9604  -1.4556   4.5197   4.5197   7.0062   8.7977   8.7977  12.5944
    16.1237  16.1237

          k = 0.4500 0.4500 0.4500 (  1610 PWs)   bands (ev):

    -4.1072  -1.2458   4.5375   4.5375   7.0268   8.8219   8.8219  12.6333
    15.4018  15.4018

          k = 0.4000 0.4000 0.4000 (  1616 PWs)   bands (ev):

    -4.4466  -0.7178   4.5909   4.5909   7.0884   8.8889   8.8889  12.7432
    14.5038  14.5038

          k = 0.3500 0.3500 0.3500 (  1610 PWs)   bands (ev):

    -4.8421  -0.0102   4.6798   4.6798   7.1905   8.9789   8.9789  12.8901
    13.7084  13.7084

          k = 0.3000 0.3000 0.3000 (  1615 PWs)   bands (ev):

    -5.2256   0.8058   4.8036   4.8036   7.3313   9.0535   9.0535  12.8979
    13.0710  13.0710

          k = 0.2500 0.2500 0.2500 (  1618 PWs)   bands (ev):

    -5.5687   1.6958   4.9602   4.9602   7.5070   9.0551   9.0551  12.3737
    12.6524  12.6524

          k = 0.2000 0.2000 0.2000 (  1606 PWs)   bands (ev):

    -5.8583   2.6368   5.1446   5.1446   7.7092   8.9335   8.9335  11.5739
    12.5019  12.5019

          k = 0.1500 0.1500 0.1500 (  1600 PWs)   bands (ev):

    -6.0877   3.6038   5.3458   5.3458   7.9203   8.6983   8.6983  10.7200
    12.6045  12.6045

          k = 0.1000 0.1000 0.1000 (  1606 PWs)   bands (ev):

    -6.2535   4.5533   5.5426   5.5426   8.1024   8.4229   8.4229   9.8806
    12.8725  12.8725

          k = 0.0500 0.0500 0.0500 (  1630 PWs)   bands (ev):

    -6.3536   5.3756   5.6968   5.6968   8.1709   8.2003   8.2003   9.2003
    12.8772  13.1691

          k = 0.0000 0.0000 0.0000 (  1639 PWs)   bands (ev):

    -6.3871   5.7573   5.7573   5.7573   8.1137   8.1137   8.1137   8.9540
    12.7141  13.3074

          k = 0.0000 0.1000 0.0000 (  1627 PWs)   bands (ev):

    -6.3425   5.4712   5.5615   5.5615   7.9839   8.3628   8.3628   9.2295
    12.9116  12.9299

          k = 0.0000 0.2000 0.0000 (  1599 PWs)   bands (ev):

    -6.2087   4.8066   5.1290   5.1290   7.6577   8.9540   8.9540   9.7764
    12.1694  13.5017

          k = 0.0000 0.3000 0.0000 (  1607 PWs)   bands (ev):

    -5.9865   3.9918   4.6412   4.6412   7.2480   9.7021   9.7021   9.8873
    11.9430  13.7443

          k = 0.0000 0.4000 0.0000 (  1607 PWs)   bands (ev):

    -5.6772   3.1193   4.1748   4.1748   6.8365   9.2314  10.5263  10.5263
    12.6150  14.0838

          k = 0.0000 0.5000 0.0000 (  1612 PWs)   bands (ev):

    -5.2824   2.2223   3.7598   3.7598   6.4694   8.4110  11.3925  11.3925
    13.5957  14.5197

          k = 0.0000 0.6000 0.0000 (  1620 PWs)   bands (ev):

    -4.8048   1.3161   3.4101   3.4101   6.1726   7.6591  12.2854  12.2854
    14.6447  15.0518

          k = 0.0000 0.7000 0.0000 (  1632 PWs)   bands (ev):

    -4.2476   0.4129   3.1331   3.1331   5.9619   7.0297  13.1986  13.1986
    15.6793  15.6876

          k = 0.0000 0.8000 0.0000 (  1624 PWs)   bands (ev):

    -3.6152  -0.4746   2.9329   2.9329   5.8485   6.5359  14.1285  14.1285
    16.4018  16.6845

          k = 0.0000 0.9000 0.0000 (  1608 PWs)   bands (ev):

    -2.9134  -1.3330   2.8119   2.8119   5.8412   6.1773  15.0588  15.0588
    17.2181  17.2382

          k = 0.0000 1.0000 0.0000 (  1604 PWs)   bands (ev):

    -2.1496  -2.1496   2.7715   2.7715   5.9482   5.9482  15.7208  15.7208
    16.5595  16.5595

          k = 0.0000 0.9750 0.0750 (  1618 PWs)   bands (ev):

    -2.3349  -1.9421   2.6822   2.6896   6.0625   6.1415  15.2881  15.5259
    16.2527  16.5060

          k = 0.0000 0.9500 0.1500 (  1622 PWs)   bands (ev):

    -2.4906  -1.7248   2.4507   2.5018   6.4481   6.5879  14.2257  15.0597
    15.7740  16.6646

          k =-0.0000 0.9250 0.2250 (  1622 PWs)   bands (ev):

    -2.6127  -1.5171   2.1544   2.3052   7.0224   7.2063  13.0308  14.3743
    15.4320  16.8263

          k =-0.0000 0.9000 0.3000 (  1623 PWs)   bands (ev):

    -2.6995  -1.3453   1.8532   2.1764   7.7208   7.9382  11.8363  13.6183
    15.1523  16.8006

          k = 0.0000 0.8750 0.3750 (  1614 PWs)   bands (ev):

    -2.7511  -1.2371   1.5817   2.1667   8.5034   8.7322  10.7014  12.8670
    14.8805  16.5346

          k = 0.0000 0.8500 0.4500 (  1612 PWs)   bands (ev):

    -2.7685  -1.2068   1.3594   2.2964   9.2061   9.3391  10.0137  12.1539
    14.5973  16.1065

          k = 0.0000 0.8250 0.5250 (  1611 PWs)   bands (ev):

    -2.7536  -1.2462   1.1981   2.5479   8.3941  10.1662  10.7525  11.5362
    14.2962  15.5825

          k =-0.0000 0.8000 0.6000 (  1614 PWs)   bands (ev):

    -2.7087  -1.3320   1.1053   2.8648   7.5060  10.4953  11.4947  11.7399
    13.9801  15.0141

          k =-0.0000 0.7750 0.6750 (  1621 PWs)   bands (ev):

    -2.6356  -1.4407   1.0859   3.1435   6.8079  10.0420  12.2952  12.7832
    13.6648  14.4409

          k = 0.0000 0.7500 0.7500 (  1624 PWs)   bands (ev):

    -2.5360  -1.5574   1.1421   3.2164   6.4698   9.5205  13.0513  13.5210
    13.7397  14.0004

          k = 0.0000 0.7250 0.7750 (  1616 PWs)   bands (ev):

    -2.5302  -1.5591   1.1470   3.1729   6.5304   9.5243  12.8857  13.4432
    13.6857  14.2989

          k = 0.0000 0.7000 0.8000 (  1621 PWs)   bands (ev):

    -2.5126  -1.5646   1.1616   3.0523   6.7028   9.5356  12.5975  13.0512
    13.9717  14.6961

          k = 0.0000 0.6750 0.8250 (  1620 PWs)   bands (ev):

    -2.4835  -1.5747   1.1861   2.8771   6.9649   9.5540  12.2906  12.6591
    14.2748  15.0937

          k = 0.0000 0.6500 0.8500 (  1616 PWs)   bands (ev):

    -2.4426  -1.5909   1.2202   2.6714   7.2937   9.5788  11.9826  12.2733
    14.5781  15.4788

          k = 0.0000 0.6250 0.8750 (  1616 PWs)   bands (ev):

    -2.3902  -1.6154   1.2638   2.4550   7.6707   9.6086  11.6798  11.8967
    14.8761  15.8372

          k = 0.0000 0.6000 0.9000 (  1613 PWs)   bands (ev):

    -2.3261  -1.6506   1.3168   2.2427   8.0820   9.6410  11.3870  11.5317
    15.1655  16.1446

          k = 0.0000 0.5750 0.9250 (  1615 PWs)   bands (ev):

    -2.2505  -1.6995   1.3791   2.0457   8.5159   9.6717  11.1102  11.1825
    15.4440  16.3600

          k = 0.0000 0.5500 0.9500 (  1615 PWs)   bands (ev):

    -2.1634  -1.7650   1.4503   1.8722   8.9579   9.6920  10.8586  10.8592
    15.7089  16.4350

          k = 0.0000 0.5250 0.9750 (  1615 PWs)   bands (ev):

    -2.0648  -1.8496   1.5303   1.7285   9.3728   9.6857  10.5916  10.6511
    15.9568  16.3608

          k = 0.0000 0.5000 1.0000 (  1628 PWs)   bands (ev):

    -1.9548  -1.9548   1.6185   1.6185   9.6285   9.6285  10.5112  10.5112
    16.1825  16.1825

          k = 0.0000 0.4500 0.9000 (  1616 PWs)   bands (ev):

    -2.4966  -1.4498   1.4123   2.0378   9.3117   9.3204  10.1734  11.6902
    15.1530  16.5029

          k =-0.0000 0.4000 0.8000 (  1616 PWs)   bands (ev):

    -3.1462  -0.8605   1.4966   2.5436   8.8158   9.0960   9.9419  13.2642
    14.0583  15.7424

          k =-0.0000 0.3500 0.7000 (  1618 PWs)   bands (ev):

    -3.8200  -0.1869   1.7988   3.1076   8.3978   9.0128   9.7938  12.9941
    14.8095  14.8777

          k =-0.0000 0.3000 0.6000 (  1609 PWs)   bands (ev):

    -4.4583   0.5704   2.2608   3.6903   8.0872   9.0966   9.6922  12.0070
    13.9630  16.1240

          k = 0.0000 0.2500 0.5000 (  1610 PWs)   bands (ev):

    -5.0270   1.4098   2.8426   4.2462   7.8883   9.3402   9.6184  11.0929
    13.2742  15.8221

          k = 0.0000 0.2000 0.4000 (  1613 PWs)   bands (ev):

    -5.5074   2.3264   3.5106   4.7367   7.8008   9.3133   9.9371  10.2566
    12.7339  14.3853

          k = 0.0000 0.1500 0.3000 (  1607 PWs)   bands (ev):

    -5.8886   3.3087   4.2255   5.1435   7.8182   9.0361   9.5029  10.4402
    12.1807  13.4978

          k =-0.0000 0.1000 0.2000 (  1600 PWs)   bands (ev):

    -6.1645   4.3252   4.9279   5.4620   7.9195   8.6970   8.8448  10.1793
    12.2017  13.2730

          k =-0.0000 0.0500 0.1000 (  1623 PWs)   bands (ev):

    -6.3313   5.2730   5.5083   5.6780   8.0501   8.3316   8.3509   9.3328
    12.9019  12.9818

          k = 0.0000 0.0000 0.0000 (  1639 PWs)   bands (ev):

    -6.3871   5.7573   5.7573   5.7573   8.1137   8.1137   8.1137   8.9540
    12.7141  13.3074

     Writing output data file Si.save

     init_run     :      0.21s CPU      0.25s WALL (       1 calls)
     electrons    :     26.77s CPU     27.96s WALL (       1 calls)

     Called by init_run:
     wfcinit      :      0.00s CPU      0.00s WALL (       1 calls)
     potinit      :      0.06s CPU      0.09s WALL (       1 calls)

     Called by electrons:
     c_bands      :     26.77s CPU     27.96s WALL (       1 calls)
     v_of_rho     :      0.06s CPU      0.07s WALL (       1 calls)

     Called by c_bands:
     init_us_2    :      0.09s CPU      0.11s WALL (      51 calls)
     cegterg      :     20.83s CPU     21.77s WALL (      63 calls)

     Called by *egterg:
     h_psi        :     22.42s CPU     23.43s WALL (    1053 calls)
     g_psi        :      0.06s CPU      0.06s WALL (     939 calls)
     cdiaghg      :      0.45s CPU      0.47s WALL (     990 calls)

     Called by h_psi:
     add_vuspsi   :      0.65s CPU      0.70s WALL (    1053 calls)

     General routines
     calbec       :      0.75s CPU      0.77s WALL (    1053 calls)
     fft          :      0.02s CPU      0.02s WALL (      10 calls)
     fftw         :     19.82s CPU     20.74s WALL (   15194 calls)
     davcio       :      0.00s CPU      0.01s WALL (      51 calls)

     Parallel routines
     fft_scatter  :      0.49s CPU      0.52s WALL (   15204 calls)

     PWSCF        :    28.54s CPU        29.96s WALL


   This run was terminated on:  17:43:46  13Feb2023            

=------------------------------------------------------------------------------=
   JOB DONE.
=------------------------------------------------------------------------------=
