
     Program PWSCF v.5.1 starts on 13Feb2023 at 17:42:34 

     This program is part of the open-source Quantum ESPRESSO suite
     for quantum simulation of materials; please cite
         "P. Giannozzi et al., J. Phys.:Condens. Matter 21 395502 (2009);
          URL http://www.quantum-espresso.org", 
     in publications or presentations arising from this work. More details at
     http://www.quantum-espresso.org/quote

     Parallel version (MPI), running on     1 processors
     Waiting for input...
     Reading input from standard input

     Current dimensions of program PWSCF are:
     Max number of different atomic species (ntypx) = 10
     Max number of k-points (npk) =  40000
     Max angular momentum in pseudopotentials (lmaxx) =  3

     Atomic positions and unit cell read from directory:
     ./out/Si.save/

               file Si.pbe-mt_fhi.UPF: wavefunction(s)  4f renormalized

     Subspace diagonalization in iterative solution of the eigenvalue problem:
     a serial algorithm will be used


     G-vector sticks info
     --------------------
     sticks:   dense  smooth     PW     G-vecs:    dense   smooth      PW
     Sum         733     733    223                12939    12939    2229



     bravais-lattice index     =            2
     lattice parameter (alat)  =      10.2623  a.u.
     unit-cell volume          =     270.1967 (a.u.)^3
     number of atoms/cell      =            2
     number of atomic types    =            1
     number of electrons       =        10.00
     number of Kohn-Sham states=           10
     kinetic-energy cutoff     =      50.0000  Ry
     charge density cutoff     =     200.0000  Ry
     Exchange-correlation      = PBE ( 1  4  3  4 0)

     celldm(1)=  10.262347  celldm(2)=   0.000000  celldm(3)=   0.000000
     celldm(4)=   0.000000  celldm(5)=   0.000000  celldm(6)=   0.000000

     crystal axes: (cart. coord. in units of alat)
               a(1) = (  -0.500000   0.000000   0.500000 )  
               a(2) = (   0.000000   0.500000   0.500000 )  
               a(3) = (  -0.500000   0.500000   0.000000 )  

     reciprocal axes: (cart. coord. in units 2 pi/alat)
               b(1) = ( -1.000000 -1.000000  1.000000 )  
               b(2) = (  1.000000  1.000000  1.000000 )  
               b(3) = ( -1.000000  1.000000 -1.000000 )  


     PseudoPot. # 1 for Si read from file:
     /home/acedemo/psudo/Si.pbe-mt_fhi.UPF
     MD5 check sum: 259057c2adf9952f9ced37ae3d9e311d
     Pseudo is Norm-conserving, Zval =  4.0
     Generated using FHI98PP, converted with fhi2upf.x v.5.0.2
     Using radial grid of  495 points,  3 beta functions with: 
                l(1) =   0
                l(2) =   1
                l(3) =   3

     atomic species   valence    mass     pseudopotential
        Si             4.00    28.08550     Si( 1.00)

     48 Sym. Ops., with inversion, found (24 have fractional translation)



   Cartesian axes

     site n.     atom                  positions (alat units)
         1           Si  tau(   1) = (   0.0000000   0.0000000   0.0000000  )
         2           Si  tau(   2) = (   0.2500000   0.2500000   0.2500000  )

     number of k points=    72 (tetrahedron method)
                       cart. coord. in units 2pi/alat
        k(    1) = (   0.0000000   0.0000000   0.0000000), wk =   0.0011574
        k(    2) = (  -0.0833333   0.0833333  -0.0833333), wk =   0.0092593
        k(    3) = (  -0.1666667   0.1666667  -0.1666667), wk =   0.0092593
        k(    4) = (  -0.2500000   0.2500000  -0.2500000), wk =   0.0092593
        k(    5) = (  -0.3333333   0.3333333  -0.3333333), wk =   0.0092593
        k(    6) = (  -0.4166667   0.4166667  -0.4166667), wk =   0.0092593
        k(    7) = (   0.5000000  -0.5000000   0.5000000), wk =   0.0046296
        k(    8) = (   0.0000000   0.1666667   0.0000000), wk =   0.0069444
        k(    9) = (  -0.0833333   0.2500000  -0.0833333), wk =   0.0277778
        k(   10) = (  -0.1666667   0.3333333  -0.1666667), wk =   0.0277778
        k(   11) = (  -0.2500000   0.4166667  -0.2500000), wk =   0.0277778
        k(   12) = (  -0.3333333   0.5000000  -0.3333333), wk =   0.0277778
        k(   13) = (   0.5833333  -0.4166667   0.5833333), wk =   0.0277778
        k(   14) = (   0.5000000  -0.3333333   0.5000000), wk =   0.0277778
        k(   15) = (   0.4166667  -0.2500000   0.4166667), wk =   0.0277778
        k(   16) = (   0.3333333  -0.1666667   0.3333333), wk =   0.0277778
        k(   17) = (   0.2500000  -0.0833333   0.2500000), wk =   0.0277778
        k(   18) = (   0.1666667  -0.0000000   0.1666667), wk =   0.0138889
        k(   19) = (   0.0000000   0.3333333   0.0000000), wk =   0.0069444
        k(   20) = (  -0.0833333   0.4166667  -0.0833333), wk =   0.0277778
        k(   21) = (  -0.1666667   0.5000000  -0.1666667), wk =   0.0277778
        k(   22) = (  -0.2500000   0.5833333  -0.2500000), wk =   0.0277778
        k(   23) = (   0.6666667  -0.3333333   0.6666667), wk =   0.0277778
        k(   24) = (   0.5833333  -0.2500000   0.5833333), wk =   0.0277778
        k(   25) = (   0.5000000  -0.1666667   0.5000000), wk =   0.0277778
        k(   26) = (   0.4166667  -0.0833333   0.4166667), wk =   0.0277778
        k(   27) = (   0.3333333   0.0000000   0.3333333), wk =   0.0138889
        k(   28) = (   0.0000000   0.5000000   0.0000000), wk =   0.0069444
        k(   29) = (  -0.0833333   0.5833333  -0.0833333), wk =   0.0277778
        k(   30) = (  -0.1666667   0.6666667  -0.1666667), wk =   0.0277778
        k(   31) = (   0.7500000  -0.2500000   0.7500000), wk =   0.0277778
        k(   32) = (   0.6666667  -0.1666667   0.6666667), wk =   0.0277778
        k(   33) = (   0.5833333  -0.0833333   0.5833333), wk =   0.0277778
        k(   34) = (   0.5000000   0.0000000   0.5000000), wk =   0.0138889
        k(   35) = (   0.0000000   0.6666667   0.0000000), wk =   0.0069444
        k(   36) = (  -0.0833333   0.7500000  -0.0833333), wk =   0.0277778
        k(   37) = (   0.8333333  -0.1666667   0.8333333), wk =   0.0277778
        k(   38) = (   0.7500000  -0.0833333   0.7500000), wk =   0.0277778
        k(   39) = (   0.6666667   0.0000000   0.6666667), wk =   0.0138889
        k(   40) = (   0.0000000   0.8333333   0.0000000), wk =   0.0069444
        k(   41) = (   0.9166667  -0.0833333   0.9166667), wk =   0.0277778
        k(   42) = (   0.8333333   0.0000000   0.8333333), wk =   0.0138889
        k(   43) = (   0.0000000  -1.0000000   0.0000000), wk =   0.0034722
        k(   44) = (  -0.1666667   0.3333333   0.0000000), wk =   0.0277778
        k(   45) = (  -0.2500000   0.4166667  -0.0833333), wk =   0.0555556
        k(   46) = (  -0.3333333   0.5000000  -0.1666667), wk =   0.0555556
        k(   47) = (   0.5833333  -0.4166667   0.7500000), wk =   0.0555556
        k(   48) = (   0.5000000  -0.3333333   0.6666667), wk =   0.0277778
        k(   49) = (  -0.1666667   0.5000000   0.0000000), wk =   0.0277778
        k(   50) = (  -0.2500000   0.5833333  -0.0833333), wk =   0.0555556
        k(   51) = (   0.6666667  -0.3333333   0.8333333), wk =   0.0555556
        k(   52) = (   0.5833333  -0.2500000   0.7500000), wk =   0.0555556
        k(   53) = (   0.5000000  -0.1666667   0.6666667), wk =   0.0555556
        k(   54) = (   0.4166667  -0.0833333   0.5833333), wk =   0.0555556
        k(   55) = (   0.3333333   0.0000000   0.5000000), wk =   0.0277778
        k(   56) = (  -0.1666667   0.6666667  -0.0000000), wk =   0.0277778
        k(   57) = (   0.7500000  -0.2500000   0.9166667), wk =   0.0555556
        k(   58) = (   0.6666667  -0.1666667   0.8333333), wk =   0.0555556
        k(   59) = (   0.5833333  -0.0833333   0.7500000), wk =   0.0555556
        k(   60) = (   0.5000000   0.0000000   0.6666667), wk =   0.0277778
        k(   61) = (   0.8333333  -0.1666667   1.0000000), wk =   0.0277778
        k(   62) = (   0.7500000  -0.0833333   0.9166667), wk =   0.0555556
        k(   63) = (   0.6666667   0.0000000   0.8333333), wk =   0.0277778
        k(   64) = (  -0.1666667  -1.0000000   0.0000000), wk =   0.0138889
        k(   65) = (   0.6666667  -0.3333333   1.0000000), wk =   0.0277778
        k(   66) = (   0.5833333  -0.2500000   0.9166667), wk =   0.0555556
        k(   67) = (   0.5000000  -0.1666667   0.8333333), wk =   0.0277778
        k(   68) = (   0.6666667  -0.1666667   1.0000000), wk =   0.0277778
        k(   69) = (   0.5833333  -0.0833333   0.9166667), wk =   0.0555556
        k(   70) = (   0.5000000   0.0000000   0.8333333), wk =   0.0277778
        k(   71) = (  -0.3333333  -1.0000000   0.0000000), wk =   0.0138889
        k(   72) = (  -0.5000000  -1.0000000   0.0000000), wk =   0.0069444

     Dense  grid:    12939 G-vectors     FFT dimensions: (  36,  36,  36)

     Largest allocated arrays     est. size (Mb)     dimensions
        Kohn-Sham Wavefunctions         0.25 Mb     (    1639,   10)
        NL pseudopotentials             0.55 Mb     (    1639,   22)
        Each V/rho on FFT grid          0.71 Mb     (   46656)
        Each G-vector array             0.10 Mb     (   12939)
        G-vector shells                 0.00 Mb     (     180)
     Largest temporary arrays     est. size (Mb)     dimensions
        Auxiliary wavefunctions         1.00 Mb     (    1639,   40)
        Each subspace H/S matrix        0.02 Mb     (      40,   40)
        Each <psi_i|beta_j> matrix      0.00 Mb     (      22,   10)

     The potential is recalculated from file :
     ./out/Si.save/charge-density.dat

     Starting wfc are   32 randomized atomic wfcs

     Band Structure Calculation
     Davidson diagonalization with overlap

     ethr =  1.60E-11,  avg # of iterations = 19.2

     total cpu time spent up to now is       37.9 secs

     End of band structure calculation

          k = 0.0000 0.0000 0.0000 (  1639 PWs)   bands (ev):

    -6.3871   5.7573   5.7573   5.7573   8.1137   8.1137   8.1137   8.9540
    12.7141  13.3074

          k =-0.0833 0.0833-0.0833 (  1612 PWs)   bands (ev):

    -6.2942   4.8509   5.6012   5.6012   8.1438   8.3384   8.3384   9.6235
    12.9764  12.9764

          k =-0.1667 0.1667-0.1667 (  1591 PWs)   bands (ev):

    -6.0182   3.2806   5.2779   5.2779   7.8507   8.7856   8.7856  11.0064
    12.5465  12.5465

          k =-0.2500 0.2500-0.2500 (  1618 PWs)   bands (ev):

    -5.5687   1.6958   4.9602   4.9602   7.5070   9.0551   9.0551  12.3737
    12.6524  12.6524

          k =-0.3333 0.3333-0.3333 (  1616 PWs)   bands (ev):

    -4.9731   0.2519   4.7173   4.7173   7.2332   9.0080   9.0080  12.9274
    13.4756  13.4756

          k =-0.4167 0.4167-0.4167 (  1616 PWs)   bands (ev):

    -4.3220  -0.9191   4.5692   4.5692   7.0633   8.8627   8.8627  12.6998
    14.7949  14.7949

          k = 0.5000-0.5000 0.5000 (  1622 PWs)   bands (ev):

    -3.9604  -1.4556   4.5197   4.5197   7.0062   8.7977   8.7977  12.5944
    16.1237  16.1237

          k = 0.0000 0.1667 0.0000 (  1615 PWs)   bands (ev):

    -6.2632   5.0527   5.2855   5.2855   7.7810   8.7330   8.7330   9.5980
    12.4086  13.2850

          k =-0.0833 0.2500-0.0833 (  1599 PWs)   bands (ev):

    -6.0477   3.7658   4.9020   5.1120   7.7897   8.8068   9.2868  10.4284
    12.0663  13.3349

          k =-0.1667 0.3333-0.1667 (  1610 PWs)   bands (ev):

    -5.6547   2.2192   4.5806   4.7692   7.9196   8.7755   9.6561  10.7786
    12.9102  13.3575

          k =-0.2500 0.4167-0.2500 (  1606 PWs)   bands (ev):

    -5.1032   0.7432   4.3704   4.4024   7.7768   8.7964   9.6317  11.3498
    13.9220  14.0306

          k =-0.3333 0.5000-0.3333 (  1616 PWs)   bands (ev):

    -4.4517  -0.5278   4.0963   4.2859   7.6116   8.7115   9.3940  12.3722
    13.7635  15.2458

          k = 0.5833-0.4167 0.5833 (  1615 PWs)   bands (ev):

    -3.9263  -1.3388   3.8823   4.3257   7.5353   8.6906   9.1701  12.9778
    14.3973  16.0688

          k = 0.5000-0.3333 0.5000 (  1616 PWs)   bands (ev):

    -4.0576  -1.1493   3.7783   4.4799   7.5683   8.8077   9.0537  13.0526
    14.4689  14.8664

          k = 0.4167-0.2500 0.4167 (  1611 PWs)   bands (ev):

    -4.6736  -0.1335   3.7984   4.7316   7.7078   9.0384   9.0430  12.7690
    13.0514  14.2037

          k = 0.3333-0.1667 0.3333 (  1605 PWs)   bands (ev):

    -5.3034   1.2210   3.9541   5.0545   7.9425   8.9964   9.2510  11.9121
    12.0941  14.3352

          k = 0.2500-0.0833 0.2500 (  1600 PWs)   bands (ev):

    -5.8053   2.7223   4.2593   5.3977   8.2428   8.7240   9.0837  11.2170
    11.8547  13.4295

          k = 0.1667-0.0000 0.1667 (  1592 PWs)   bands (ev):

    -6.1401   4.1163   4.8041   5.6420   8.3647   8.4976   8.5060  10.4132
    12.2713  13.0662

          k = 0.0000 0.3333 0.0000 (  1607 PWs)   bands (ev):

    -5.8930   3.7051   4.4813   4.4813   7.1082   9.7211   9.9707   9.9707
    12.0988  13.8467

          k =-0.0833 0.4167-0.0833 (  1616 PWs)   bands (ev):

    -5.5586   2.5822   4.1171   4.1361   7.1274   9.2747  10.2357  10.5296
    13.1463  14.0474

          k =-0.1667 0.5000-0.1667 (  1611 PWs)   bands (ev):

    -5.0576   1.2248   3.6382   3.9146   7.3579   9.4719  10.0251  10.6583
    14.6232  14.6682

          k =-0.2500 0.5833-0.2500 (  1610 PWs)   bands (ev):

    -4.4283  -0.0552   3.1808   3.8339   7.3747   9.7802  10.4335  10.4555
    14.9758  15.7571

          k = 0.6667-0.3333 0.6667 (  1607 PWs)   bands (ev):

    -3.8114  -1.0355   2.8217   3.8961   7.4029   9.6068  10.1321  11.8558
    14.5729  16.0244

          k = 0.5833-0.2500 0.5833 (  1602 PWs)   bands (ev):

    -3.6862  -1.2079   2.5944   4.0930   7.5669   9.5365   9.8942  13.3907
    13.8872  14.2954

          k = 0.5000-0.1667 0.5000 (  1610 PWs)   bands (ev):

    -4.2188  -0.4060   2.5246   4.4053   7.8703   9.5743   9.7376  12.6933
    12.7997  14.6999

          k = 0.4167-0.0833 0.4167 (  1613 PWs)   bands (ev):

    -4.8684   0.7896   2.6552   4.7941   8.2567   9.5422   9.6396  11.5299
    11.7716  15.4220

          k = 0.3333 0.0000 0.3333 (  1604 PWs)   bands (ev):

    -5.4159   1.9686   3.1506   5.1790   8.5764   9.1149   9.3412  11.0532
    11.4967  14.9434

          k = 0.0000 0.5000 0.0000 (  1612 PWs)   bands (ev):

    -5.2824   2.2223   3.7598   3.7598   6.4694   8.4110  11.3925  11.3925
    13.5957  14.5197

          k =-0.0833 0.5833-0.0833 (  1617 PWs)   bands (ev):

    -4.8354   1.2942   3.2512   3.5073   6.5581   8.0501  11.6502  11.8538
    14.8962  15.0849

          k =-0.1667 0.6667-0.1667 (  1620 PWs)   bands (ev):

    -4.2427   0.2313   2.5696   3.4002   6.7464   8.5880  11.4831  11.7685
    16.1908  16.4632

          k = 0.7500-0.2500 0.7500 (  1617 PWs)   bands (ev):

    -3.5901  -0.7387   1.9948   3.4444   6.8163   9.8261  11.3011  11.4604
    15.5755  16.0848

          k = 0.6667-0.1667 0.6667 (  1607 PWs)   bands (ev):

    -3.2393  -1.1855   1.6122   3.6351   7.0050  10.8755  11.1512  11.6837
    14.2052  14.2851

          k = 0.5833-0.0833 0.5833 (  1611 PWs)   bands (ev):

    -3.6387  -0.6592   1.4742   3.9561   7.3578  10.8641  10.8949  12.6120
    12.7597  13.4296

          k = 0.5000 0.0000 0.5000 (  1604 PWs)   bands (ev):

    -4.2879   0.1964   1.7376   4.3703   7.8357  10.3534  10.6009  11.5664
    11.8616  15.0840

          k = 0.0000 0.6667 0.0000 (  1624 PWs)   bands (ev):

    -4.4419   0.7128   3.2171   3.2171   6.0218   7.2246  12.8921  12.8921
    15.3435  15.4596

          k =-0.0833 0.7500-0.0833 (  1618 PWs)   bands (ev):

    -3.8933  -0.0853   2.6729   3.0716   6.1837   7.1256  13.1818  13.2334
    16.3883  16.6415

          k = 0.8333-0.1667 0.8333 (  1619 PWs)   bands (ev):

    -3.2416  -0.8699   1.8706   3.0804   6.3288   8.0683  13.0188  13.0328
    16.1047  16.2554

          k = 0.7500-0.0833 0.7500 (  1620 PWs)   bands (ev):

    -2.7392  -1.3870   1.2447   3.2420   6.5090   9.5545  12.6586  12.8373
    14.4126  14.4500

          k = 0.6667 0.0000 0.6667 (  1612 PWs)   bands (ev):

    -3.0167  -1.0992   1.0279   3.5442   6.8581  11.1821  12.0520  12.6218
    12.9116  13.1307

          k = 0.0000 0.8333 0.0000 (  1628 PWs)   bands (ev):

    -3.3887  -0.7646   2.8837   2.8837   5.8338   6.4016  14.4407  14.4407
    16.6635  17.0011

          k = 0.9167-0.0833 0.9167 (  1622 PWs)   bands (ev):

    -2.7579  -1.4648   2.3895   2.8500   6.0234   6.6289  14.6654  14.7476
    16.4027  16.4761

          k = 0.8333 0.0000 0.8333 (  1614 PWs)   bands (ev):

    -2.2701  -1.8860   1.6403   2.9722   6.1827   7.9009  14.1163  14.5956
    14.6349  14.9709

          k = 0.0000-1.0000 0.0000 (  1604 PWs)   bands (ev):

    -2.1496  -2.1496   2.7715   2.7715   5.9482   5.9482  15.7208  15.7208
    16.5595  16.5595

          k =-0.1667 0.3333 0.0000 (  1603 PWs)   bands (ev):

    -5.7730   2.9752   3.9850   5.0175   7.8015   9.1396   9.7445  10.2976
    12.3671  13.7058

          k =-0.2500 0.4167-0.0833 (  1607 PWs)   bands (ev):

    -5.3257   1.6964   3.4358   4.7268   8.0823   9.0795  10.1021  10.2595
    12.7967  14.8437

          k =-0.3333 0.5000-0.1667 (  1604 PWs)   bands (ev):

    -4.7322   0.3486   3.1709   4.3801   8.1211   8.8610  10.1604  10.9335
    13.6546  14.9293

          k = 0.5833-0.4167 0.7500 (  1612 PWs)   bands (ev):

    -4.0806  -0.7867   3.0494   4.1192   8.0804   8.5982  10.0615  12.1776
    14.2508  15.0931

          k = 0.5000-0.3333 0.6667 (  1602 PWs)   bands (ev):

    -3.7154  -1.3168   3.0165   4.0219   8.0742   8.4816  10.0111  13.3703
    13.7003  15.1892

          k =-0.1667 0.5000 0.0000 (  1617 PWs)   bands (ev):

    -5.1684   1.7941   3.2603   4.0380   7.1927   8.8406  10.3863  11.2513
    13.6998  15.0224

          k =-0.2500 0.5833-0.0833 (  1611 PWs)   bands (ev):

    -4.6207   0.7130   2.6984   3.7244   7.5147   9.0807  10.1012  11.6112
    14.3836  16.1592

          k = 0.6667-0.3333 0.8333 (  1617 PWs)   bands (ev):

    -3.9705  -0.3888   2.3373   3.4977   7.6090   9.6526  10.2613  11.5680
    15.2174  15.5843

          k = 0.5833-0.2500 0.7500 (  1607 PWs)   bands (ev):

    -3.4406  -1.1397   2.0841   3.4788   7.7391   9.3858  11.4242  11.7473
    13.7296  15.9116

          k = 0.5000-0.1667 0.6667 (  1605 PWs)   bands (ev):

    -3.5857  -0.9402   1.9531   3.6635   8.0103   9.1858  11.3573  12.0984
    13.4507  14.7815

          k = 0.4167-0.0833 0.5833 (  1610 PWs)   bands (ev):

    -4.2076  -0.0139   2.0114   4.0023   8.4115   9.0503  10.7181  11.2955
    13.4814  15.0833

          k = 0.3333 0.0000 0.5000 (  1606 PWs)   bands (ev):

    -4.8312   0.9998   2.4301   4.4129   8.6866   8.8577  10.0164  10.9004
    12.7462  16.0542

          k =-0.1667 0.6667-0.0000 (  1626 PWs)   bands (ev):

    -4.3388   0.5324   2.7331   3.1996   6.7511   7.7491  11.6324  12.8324
    15.1766  16.6480

          k = 0.7500-0.2500 0.9167 (  1621 PWs)   bands (ev):

    -3.7132  -0.3208   2.0954   2.9620   7.0637   8.3497  11.2948  13.1767
    15.7097  16.1316

          k = 0.6667-0.1667 0.8333 (  1616 PWs)   bands (ev):

    -3.0929  -1.0688   1.5383   2.9712   7.2075   9.6839  10.9837  13.0911
    13.9300  16.4229

          k = 0.5833-0.0833 0.7500 (  1614 PWs)   bands (ev):

    -3.0102  -1.1498   1.2272   3.1820   7.4778  10.4979  11.5031  12.2275
    12.9686  14.8750

          k = 0.5000 0.0000 0.6667 (  1621 PWs)   bands (ev):

    -3.5749  -0.5370   1.3138   3.5489   7.8992  10.1213  10.9264  12.3651
    13.4615  13.7125

          k = 0.8333-0.1667 1.0000 (  1617 PWs)   bands (ev):

    -3.3056  -0.7964   2.4409   2.6517   6.5462   7.0093  12.9939  14.4375
    16.1032  16.6775

          k = 0.7500-0.0833 0.9167 (  1620 PWs)   bands (ev):

    -2.6517  -1.4503   1.7403   2.6030   6.8212   7.9977  12.6432  14.1351
    14.8329  16.5402

          k = 0.6667 0.0000 0.8333 (  1620 PWs)   bands (ev):

    -2.4711  -1.5793   1.1964   2.8108   7.0681   9.5616  12.1877  12.5296
    14.3763  15.2240

          k =-0.1667-1.0000 0.0000 (  1622 PWs)   bands (ev):

    -2.1050  -2.1050   2.4063   2.4063   6.6200   6.6200  14.4595  14.4595
    16.1851  16.1851

          k = 0.6667-0.3333 1.0000 (  1610 PWs)   bands (ev):

    -4.0388   0.0563   1.9372   3.3019   8.2820   9.0207   9.7569  12.6575
    14.5130  15.3697

          k = 0.5833-0.2500 0.9167 (  1611 PWs)   bands (ev):

    -3.3881  -0.7390   1.5770   2.9351   8.6151   9.1923  10.2011  13.0603
    13.5865  15.5000

          k = 0.5000-0.1667 0.8333 (  1610 PWs)   bands (ev):

    -3.0036  -1.1969   1.4857   2.7952   8.7049   9.0252  11.5193  12.0164
    13.1314  16.6383

          k = 0.6667-0.1667 1.0000 (  1618 PWs)   bands (ev):

    -3.0754  -0.9375   1.7261   2.3779   8.0764   8.4231  10.8855  13.8136
    14.4408  16.3020

          k = 0.5833-0.0833 0.9167 (  1615 PWs)   bands (ev):

    -2.5251  -1.4575   1.3783   2.2121   8.3977   9.6636  10.6083  11.9778
    14.8155  16.7135

          k = 0.5000 0.0000 0.8333 (  1612 PWs)   bands (ev):

    -2.7620  -1.2266   1.2445   2.4532   8.7045   9.9011  10.4494  11.7223
    14.3986  15.7644

          k =-0.3333-1.0000 0.0000 (  1618 PWs)   bands (ev):

    -2.0080  -2.0080   1.8520   1.8520   8.1133   8.1133  12.2601  12.2601
    16.1728  16.1728

          k =-0.5000-1.0000 0.0000 (  1628 PWs)   bands (ev):

    -1.9548  -1.9548   1.6185   1.6185   9.6285   9.6285  10.5112  10.5112
    16.1825  16.1825

     the Fermi energy is     8.2119 ev

     Writing output data file Si.save

     init_run     :      0.20s CPU      0.21s WALL (       1 calls)
     electrons    :     35.81s CPU     37.15s WALL (       1 calls)

     Called by init_run:
     wfcinit      :      0.00s CPU      0.00s WALL (       1 calls)
     potinit      :      0.06s CPU      0.06s WALL (       1 calls)

     Called by electrons:
     c_bands      :     35.70s CPU     37.05s WALL (       1 calls)
     v_of_rho     :      0.05s CPU      0.05s WALL (       1 calls)

     Called by c_bands:
     init_us_2    :      0.11s CPU      0.12s WALL (      72 calls)
     cegterg      :     27.95s CPU     28.96s WALL (      98 calls)

     Called by *egterg:
     h_psi        :     30.07s CPU     31.18s WALL (    1556 calls)
     g_psi        :      0.07s CPU      0.08s WALL (    1386 calls)
     cdiaghg      :      0.61s CPU      0.66s WALL (    1458 calls)

     Called by h_psi:
     add_vuspsi   :      0.83s CPU      0.87s WALL (    1556 calls)

     General routines
     calbec       :      0.95s CPU      1.00s WALL (    1556 calls)
     fft          :      0.02s CPU      0.02s WALL (      10 calls)
     fftw         :     26.76s CPU     27.74s WALL (   22230 calls)
     davcio       :      0.00s CPU      0.01s WALL (      72 calls)

     Parallel routines
     fft_scatter  :      0.67s CPU      0.69s WALL (   22240 calls)

     PWSCF        :    37.87s CPU        39.26s WALL


   This run was terminated on:  17:43:13  13Feb2023            

=------------------------------------------------------------------------------=
   JOB DONE.
=------------------------------------------------------------------------------=
