
     Program PWSCF v.5.1 starts on 13Feb2023 at 23: 1:52 

     This program is part of the open-source Quantum ESPRESSO suite
     for quantum simulation of materials; please cite
         "P. Giannozzi et al., J. Phys.:Condens. Matter 21 395502 (2009);
          URL http://www.quantum-espresso.org", 
     in publications or presentations arising from this work. More details at
     http://www.quantum-espresso.org/quote

     Parallel version (MPI), running on     1 processors
     Waiting for input...
     Reading input from standard input

     Current dimensions of program PWSCF are:
     Max number of different atomic species (ntypx) = 10
     Max number of k-points (npk) =  40000
     Max angular momentum in pseudopotentials (lmaxx) =  3

     Atomic positions and unit cell read from directory:
     ./out/Si.save/

               file Si.pbe-mt_fhi.UPF: wavefunction(s)  4f renormalized

     Subspace diagonalization in iterative solution of the eigenvalue problem:
     a serial algorithm will be used


     G-vector sticks info
     --------------------
     sticks:   dense  smooth     PW     G-vecs:    dense   smooth      PW
     Sum         733     733    211                12939    12939    2109



     bravais-lattice index     =            2
     lattice parameter (alat)  =      10.2623  a.u.
     unit-cell volume          =     270.1967 (a.u.)^3
     number of atoms/cell      =            2
     number of atomic types    =            1
     number of electrons       =        88.00
     number of Kohn-Sham states=           44
     kinetic-energy cutoff     =      50.0000  Ry
     charge density cutoff     =     200.0000  Ry
     Exchange-correlation      = PBE ( 1  4  3  4 0)

     celldm(1)=  10.262347  celldm(2)=   0.000000  celldm(3)=   0.000000
     celldm(4)=   0.000000  celldm(5)=   0.000000  celldm(6)=   0.000000

     crystal axes: (cart. coord. in units of alat)
               a(1) = (  -0.500000   0.000000   0.500000 )  
               a(2) = (   0.000000   0.500000   0.500000 )  
               a(3) = (  -0.500000   0.500000   0.000000 )  

     reciprocal axes: (cart. coord. in units 2 pi/alat)
               b(1) = ( -1.000000 -1.000000  1.000000 )  
               b(2) = (  1.000000  1.000000  1.000000 )  
               b(3) = ( -1.000000  1.000000 -1.000000 )  


     PseudoPot. # 1 for Si read from file:
     /home/acedemo/psudo/Si.pbe-mt_fhi.UPF
     MD5 check sum: 259057c2adf9952f9ced37ae3d9e311d
     Pseudo is Norm-conserving, Zval =  4.0
     Generated using FHI98PP, converted with fhi2upf.x v.5.0.2
     Using radial grid of  495 points,  3 beta functions with: 
                l(1) =   0
                l(2) =   1
                l(3) =   3

     atomic species   valence    mass     pseudopotential
        Si             4.00    28.08550     Si( 1.00)

     48 Sym. Ops., with inversion, found (24 have fractional translation)



   Cartesian axes

     site n.     atom                  positions (alat units)
         1           Si  tau(   1) = (   0.0000000   0.0000000   0.0000000  )
         2           Si  tau(   2) = (   0.2500000   0.2500000   0.2500000  )

     number of k points=    51  Marzari-Vanderbilt smearing, width (Ry)=  0.0500
                       cart. coord. in units 2pi/alat
        k(    1) = (   0.5000000   0.5000000   0.5000000), wk =   0.0000000
        k(    2) = (   0.4500000   0.4500000   0.4500000), wk =   0.0014779
        k(    3) = (   0.4000000   0.4000000   0.4000000), wk =   0.0029558
        k(    4) = (   0.3500000   0.3500000   0.3500000), wk =   0.0044337
        k(    5) = (   0.3000000   0.3000000   0.3000000), wk =   0.0059116
        k(    6) = (   0.2500000   0.2500000   0.2500000), wk =   0.0073895
        k(    7) = (   0.2000000   0.2000000   0.2000000), wk =   0.0088674
        k(    8) = (   0.1500000   0.1500000   0.1500000), wk =   0.0103453
        k(    9) = (   0.1000000   0.1000000   0.1000000), wk =   0.0118232
        k(   10) = (   0.0500000   0.0500000   0.0500000), wk =   0.0133011
        k(   11) = (   0.0000000   0.0000000   0.0000000), wk =   0.0147790
        k(   12) = (   0.0000000   0.1000000   0.0000000), wk =   0.0168691
        k(   13) = (   0.0000000   0.2000000   0.0000000), wk =   0.0189591
        k(   14) = (   0.0000000   0.3000000   0.0000000), wk =   0.0210492
        k(   15) = (   0.0000000   0.4000000   0.0000000), wk =   0.0231392
        k(   16) = (   0.0000000   0.5000000   0.0000000), wk =   0.0252293
        k(   17) = (   0.0000000   0.6000000   0.0000000), wk =   0.0273194
        k(   18) = (   0.0000000   0.7000000   0.0000000), wk =   0.0294094
        k(   19) = (   0.0000000   0.8000000   0.0000000), wk =   0.0314995
        k(   20) = (   0.0000000   0.9000000   0.0000000), wk =   0.0335896
        k(   21) = (   0.0000000   1.0000000   0.0000000), wk =   0.0356796
        k(   22) = (   0.0000000   0.9750000   0.0750000), wk =   0.0370621
        k(   23) = (   0.0000000   0.9500000   0.1500000), wk =   0.0384445
        k(   24) = (  -0.0000000   0.9250000   0.2250000), wk =   0.0398270
        k(   25) = (  -0.0000000   0.9000000   0.3000000), wk =   0.0412094
        k(   26) = (   0.0000000   0.8750000   0.3750000), wk =   0.0425919
        k(   27) = (   0.0000000   0.8500000   0.4500000), wk =   0.0439743
        k(   28) = (   0.0000000   0.8250000   0.5250000), wk =   0.0453568
        k(   29) = (  -0.0000000   0.8000000   0.6000000), wk =   0.0467392
        k(   30) = (  -0.0000000   0.7750000   0.6750000), wk =   0.0481217
        k(   31) = (   0.0000000   0.7500000   0.7500000), wk =   0.0495041
        k(   32) = (   0.0000000   0.7250000   0.7750000), wk =   0.0500266
        k(   33) = (   0.0000000   0.7000000   0.8000000), wk =   0.0505491
        k(   34) = (   0.0000000   0.6750000   0.8250000), wk =   0.0510717
        k(   35) = (   0.0000000   0.6500000   0.8500000), wk =   0.0515942
        k(   36) = (   0.0000000   0.6250000   0.8750000), wk =   0.0521167
        k(   37) = (   0.0000000   0.6000000   0.9000000), wk =   0.0526392
        k(   38) = (   0.0000000   0.5750000   0.9250000), wk =   0.0531617
        k(   39) = (   0.0000000   0.5500000   0.9500000), wk =   0.0536842
        k(   40) = (   0.0000000   0.5250000   0.9750000), wk =   0.0542067
        k(   41) = (   0.0000000   0.5000000   1.0000000), wk =   0.0547293
        k(   42) = (   0.0000000   0.4500000   0.9000000), wk =   0.0574942
        k(   43) = (  -0.0000000   0.4000000   0.8000000), wk =   0.0602591
        k(   44) = (  -0.0000000   0.3500000   0.7000000), wk =   0.0630239
        k(   45) = (  -0.0000000   0.3000000   0.6000000), wk =   0.0657888
        k(   46) = (   0.0000000   0.2500000   0.5000000), wk =   0.0685537
        k(   47) = (   0.0000000   0.2000000   0.4000000), wk =   0.0713186
        k(   48) = (   0.0000000   0.1500000   0.3000000), wk =   0.0740835
        k(   49) = (  -0.0000000   0.1000000   0.2000000), wk =   0.0768484
        k(   50) = (  -0.0000000   0.0500000   0.1000000), wk =   0.0796133
        k(   51) = (   0.0000000   0.0000000   0.0000000), wk =   0.0823782

     Dense  grid:    12939 G-vectors     FFT dimensions: (  36,  36,  36)

     Largest allocated arrays     est. size (Mb)     dimensions
        Kohn-Sham Wavefunctions         1.10 Mb     (    1639,   44)
        NL pseudopotentials             0.55 Mb     (    1639,   22)
        Each V/rho on FFT grid          0.71 Mb     (   46656)
        Each G-vector array             0.10 Mb     (   12939)
        G-vector shells                 0.00 Mb     (     180)
     Largest temporary arrays     est. size (Mb)     dimensions
        Auxiliary wavefunctions         4.40 Mb     (    1639,  176)
        Each subspace H/S matrix        0.47 Mb     (     176,  176)
        Each <psi_i|beta_j> matrix      0.01 Mb     (      22,   44)

     The potential is recalculated from file :
     ./out/Si.save/charge-density.dat

     Starting wfc are   32 randomized atomic wfcs +   12 random wfc

     Band Structure Calculation
     Davidson diagonalization with overlap

     ethr =  1.82E-12,  avg # of iterations = 25.3

     total cpu time spent up to now is      151.0 secs

     End of band structure calculation

          k = 0.5000 0.5000 0.5000 (  1622 PWs)   bands (ev):

   -11.6323 -11.5889  -2.8025  -2.8025  -1.8766  -1.8766  -0.7820  -0.2585
     7.0214   7.0214   7.7607   7.7607   8.2207  10.9245  16.6924  16.6924
    16.8406  17.7361  17.9374  17.9374  18.7890  20.1516  24.2499  24.2499
    27.0304  27.0304  27.2724  27.2724  27.7094  27.9549  27.9549  29.2014
    29.9964  31.1045  35.5391  35.5391  37.7185  38.0388  38.0388  39.0860
    44.0385  44.0385  44.7864  45.6084

          k = 0.4500 0.4500 0.4500 (  1610 PWs)   bands (ev):

   -12.3181 -10.8310  -2.8262  -2.8262  -1.7816  -1.7816  -0.8315  -0.1466
     6.1649   6.1649   7.8452   8.6900   8.6900  11.3392  15.5327  15.5441
    15.5441  17.2357  19.1469  19.1469  19.6872  21.1657  24.1528  24.1528
    26.5916  26.5916  27.4245  27.7444  27.7444  28.1542  28.1542  29.5626
    29.7481  31.4119  35.5516  35.5516  37.6849  38.0818  38.0818  39.1653
    43.0964  43.0964  43.9493  44.8887

          k = 0.4000 0.4000 0.4000 (  1616 PWs)   bands (ev):

   -12.9523  -9.9805  -2.8661  -2.8661  -1.5281  -1.5281  -0.9072   0.1144
     5.0955   5.0955   7.0705   9.9775   9.9775  12.1525  13.8060  14.0070
    14.0070  15.9660  20.8525  20.8525  21.2801  22.9429  23.9245  23.9245
    26.1042  26.1042  26.9046  28.3533  28.3533  28.6794  28.6794  29.3461
    30.3115  31.9978  35.5897  35.5897  37.5943  38.2005  38.2005  39.3830
    41.0777  41.0777  42.4987  44.0489

          k = 0.3500 0.3500 0.3500 (  1610 PWs)   bands (ev):

   -13.5131  -9.0599  -2.8778  -2.8778  -1.1621  -1.1621  -0.9459   0.4553
     4.0845   4.0845   6.2149  11.3462  11.3462  11.5774  12.5128  12.5128
    13.6399  14.6699  22.4767  22.4767  22.8190  23.7907  23.7907  24.8946
    25.6874  25.6874  26.3837  29.0510  29.0510  29.0765  29.3752  29.3752
    31.2141  32.6160  35.6520  35.6520  37.4528  38.2359  38.2359  39.0162
    39.0162  39.6972  41.1139  43.2395

          k = 0.3000 0.3000 0.3000 (  1615 PWs)   bands (ev):

   -14.0000  -8.0708  -2.8382  -2.8382  -0.9307  -0.7114  -0.7114   0.8459
     3.1500   3.1500   5.3791   9.8460  11.0521  11.0521  12.8182  12.8182
    13.4084  14.7810  22.9452  22.9452  24.1935  24.6752  24.6752  25.5279
    25.5279  25.9137  26.6797  29.2863  29.8324  29.8324  30.1532  30.1532
    32.2183  33.1220  35.6790  35.6790  36.5802  36.5802  37.2588  38.7916
    38.7916  39.9123  40.2088  42.4802

          k = 0.2500 0.2500 0.2500 (  1618 PWs)   bands (ev):

   -14.4126  -7.0158  -2.7372  -2.7372  -0.8595  -0.2011  -0.2011   1.2569
     2.3097   2.3097   4.6040   8.1201   9.6872   9.6872  12.2343  14.3322
    14.3322  16.0250  22.7286  22.7286  24.8129  24.8129  25.1616  25.5090
    26.9344  26.9344  27.8618  30.5978  30.6284  30.6284  30.9635  30.9635
    33.2922  33.3099  34.3447  34.3447  36.0091  36.0091  37.1376  39.0519
    39.0519  39.3957  40.5250  41.8065

          k = 0.2000 0.2000 0.2000 (  1606 PWs)   bands (ev):

   -14.7505  -5.8990  -2.5703  -2.5703  -0.7383   0.2890   0.2890   1.6337
     1.6392   1.6392   3.9211   6.4976   8.3914   8.3914  11.1478  15.9113
    15.9113  17.3036  22.4886  22.4886  24.5839  24.5839  25.1749  25.4602
    28.7931  28.7931  28.9586  30.9685  30.9685  31.7524  31.7524  32.6621
    32.9690  33.0211  33.0211  34.4834  36.1856  36.1856  37.3752  39.2073
    39.2668  39.2668  40.8252  41.2340

          k = 0.1500 0.1500 0.1500 (  1600 PWs)   bands (ev):

   -15.0137  -4.7279  -2.3358  -2.3358  -0.5862   0.3317   0.3317   1.5634
     1.5634   1.8578   3.3433   5.1049   7.1703   7.1703  10.1775  17.5386
    17.5386  18.5727  22.2967  22.2967  24.3846  24.3846  24.9136  25.2687
    29.0920  29.0920  30.1537  31.2634  31.2634  32.4343  32.5928  32.5928
    33.3952  33.3952  34.8963  35.7364  36.4491  36.4491  37.9735  39.2643
    39.3139  39.3139  40.6487  40.6487

          k = 0.1000 0.1000 0.1000 (  1606 PWs)   bands (ev):

   -15.2018  -3.5181  -2.0334  -2.0334  -0.4605  -0.1574  -0.1574   1.7875
     2.1627   2.1627   2.6667   4.3238   6.0288   6.0288   9.3702  19.1730
    19.1730  19.7723  22.1890  22.1890  24.2362  24.2362  24.7265  24.8316
    27.3521  27.3521  30.7057  32.6010  32.9791  32.9791  33.4957  33.4957
    34.2827  34.2827  36.8096  36.8096  36.8828  37.0677  38.6159  39.2003
    39.2003  39.4371  39.9033  39.9033

          k = 0.0500 0.0500 0.0500 (  1630 PWs)   bands (ev):

   -15.3147  -2.3106  -1.6668  -1.6668  -0.6973  -0.6973  -0.5517   1.5180
     1.8709   2.9439   2.9439   4.2342   4.9833   4.9833   8.8071  20.6277
    20.6277  20.7702  22.2843  22.2843  24.1332  24.1332  24.3060  24.6140
    25.5840  25.5840  30.4899  33.5697  33.8573  33.8573  34.7377  34.7377
    35.2060  35.2060  37.3067  37.3067  37.7607  38.4762  39.0287  39.0752
    39.0752  39.4032  39.4032  39.5468

          k = 0.0000 0.0000 0.0000 (  1639 PWs)   bands (ev):

   -15.3523  -1.3265  -1.3265  -1.3265  -1.0997  -1.0997  -1.0997   1.3544
     1.5640   3.5675   3.5675   4.2758   4.2758   4.2758   8.5989  21.2187
    21.2187  21.2187  22.7020  22.7020  24.0182  24.0182  24.0182  24.5764
    24.5764  24.5764  30.3573  34.1055  34.1055  34.1055  35.2484  35.2484
    35.7124  35.7124  37.6231  37.6231  37.6231  39.4522  39.4522  39.4522
    39.5162  39.5162  39.5162  39.9047

          k = 0.0000 0.1000 0.0000 (  1627 PWs)   bands (ev):

   -15.3021  -2.1197  -2.1197  -1.5732  -1.3728  -0.2212  -0.2212   1.4517
     1.9271   2.4895   3.6180   4.3346   4.3346   5.4318   8.8987  20.3818
    20.3818  21.2657  21.5026  22.1827  24.2402  24.2402  24.3082  25.3163
    25.3163  25.8517  30.5313  33.4298  33.4298  34.0261  34.2398  34.6828
    35.0862  35.5665  37.3039  37.3039  37.4651  38.2453  38.2453  38.9601
    38.9601  40.1422  40.1649  40.2912

          k = 0.0000 0.2000 0.0000 (  1599 PWs)   bands (ev):

   -15.1516  -2.9263  -2.9263  -2.1092  -1.9459   0.3533   0.8365   0.8365
     2.7302   2.7693   3.7694   4.5154   4.5154   6.5172   9.8908  18.8932
    18.8932  19.7663  21.1723  21.4065  24.4117  24.4117  24.6683  26.9945
    26.9945  27.8018  30.8328  31.7207  31.7207  32.2492  32.9326  33.9027
    34.6852  35.2348  36.2728  36.2728  37.0404  37.5068  37.5068  38.7516
    38.7516  40.7558  40.7577  40.8594

          k = 0.0000 0.3000 0.0000 (  1607 PWs)   bands (ev):

   -14.9009  -3.6425  -3.6425  -2.7098  -2.5668  -1.2053   1.9525   1.9525
     3.6804   3.8359   4.0218   4.8353   4.8353   7.2360  11.5176  17.3430
    17.3430  18.0561  20.0148  21.6407  24.6358  24.6358  24.7935  28.6200
    28.6200  29.7977  29.8395  29.8395  30.0348  30.3706  31.7489  34.0783
    34.1877  34.9315  35.3144  35.3144  36.5174  36.8452  36.8452  38.1361
    38.1361  39.7016  39.9865  41.4203

          k = 0.0000 0.4000 0.0000 (  1607 PWs)   bands (ev):

   -14.5502  -4.2653  -4.2653  -3.3191  -3.1471  -2.6993   3.0803   3.0803
     4.3750   4.7845   5.0334   5.3366   5.3366   7.8310  13.5051  15.8381
    15.8381  16.4229  18.8143  21.9670  24.4724  24.9338  24.9338  26.9858
    26.9858  27.7928  29.2295  31.1276  31.1956  31.1956  31.5291  33.6856
    34.4157  34.4157  34.6281  35.0063  35.9958  36.2466  36.2466  37.2434
    37.2434  38.7655  39.0896  42.1957

          k = 0.0000 0.5000 0.0000 (  1612 PWs)   bands (ev):

   -14.0999  -4.7934  -4.7934  -4.3365  -3.6563  -3.6518   4.1342   4.1342
     4.8290   5.9551   6.1023   6.1023   6.3214   8.4704  14.4076  14.4076
    14.8790  15.6855  17.6265  22.3805  23.4762  24.5951  24.5951  25.3902
    25.3902  25.5945  28.6213  30.3712  32.3678  33.1561  33.1561  33.2254
    33.5865  33.5865  34.9591  35.5113  35.7352  35.7352  36.1171  36.4968
    36.4968  37.5324  39.2877  43.2098

          k = 0.0000 0.6000 0.0000 (  1620 PWs)   bands (ev):

   -13.5503  -5.6912  -5.2260  -5.2260  -4.1063  -4.0819   5.0432   5.0432
     5.3839   7.1236   7.1983   7.1983   7.6659   9.2498  13.0647  13.0647
    13.4294  16.4958  17.9857  21.9543  22.3285  22.3285  22.7919  23.5644
    25.8302  25.8302  28.5394  29.5698  32.4322  32.4627  32.4627  32.8300
    34.7476  34.9199  34.9199  35.0460  35.3434  35.3434  36.4040  36.4403
    36.4403  38.1574  40.3607  41.7195

          k = 0.0000 0.7000 0.0000 (  1632 PWs)   bands (ev):

   -12.9021  -6.9929  -5.5628  -5.5628  -4.4400  -4.4176   5.8562   5.8562
     6.0394   8.2113   8.5588   8.5588   9.0086  10.2444  11.8280  11.8280
    12.0764  15.4806  20.1001  20.1001  20.2297  20.3543  21.3366  23.6065
    26.3858  26.3858  28.2254  29.2618  31.4600  31.4600  32.2957  32.5110
    34.1658  34.4662  34.9071  34.9071  35.0903  35.0903  35.5581  38.1865
    38.1865  39.0658  40.5538  42.0300

          k = 0.0000 0.8000 0.0000 (  1624 PWs)   bands (ev):

   -12.1559  -8.2107  -5.8035  -5.8035  -4.6760  -4.6603   6.6629   6.6629
     6.7955   9.1724   9.8871   9.8871  10.1987  10.8214  10.8995  10.8995
    11.4716  14.7083  17.9618  17.9618  18.5025  19.4331  22.6936  24.4015
    27.0228  27.0228  27.3760  29.5591  30.4769  30.4769  32.1559  32.2744
    33.2070  33.6411  34.6854  34.6854  34.8520  34.8520  35.1625  36.9662
    40.3284  40.3284  43.0980  43.9017

          k = 0.0000 0.9000 0.0000 (  1608 PWs)   bands (ev):

   -11.3125  -9.3384  -5.9480  -5.9480  -4.8161  -4.8082   7.5123   7.5123
     7.6520   9.3983   9.3983   9.6653  10.0109  10.8506  11.9898  11.9898
    12.8435  14.4255  15.9491  15.9491  16.9874  17.7299  24.4776  25.8532
    26.4521  27.7207  27.7207  29.5003  29.5619  29.5619  32.0690  32.0800
    32.1225  32.7666  34.5450  34.5450  34.7011  34.7011  35.0792  35.7603
    42.2750  42.2750  45.7046  45.9095

          k = 0.0000 1.0000 0.0000 (  1604 PWs)   bands (ev):

   -10.3729 -10.3729  -5.9962  -5.9962  -4.8602  -4.8602   8.3387   8.3387
     8.5233   8.5233   8.6087   8.6087  10.6684  10.6684  13.2888  13.2888
    14.0820  14.0820  14.5110  14.5110  16.5653  16.5653  25.5226  25.5226
    27.9796  27.9796  28.2485  28.2485  28.9603  28.9603  32.0551  32.0551
    32.0662  32.0662  34.4979  34.4979  34.6506  34.6506  35.2421  35.2421
    43.2561  43.2561  46.4989  46.4989

          k = 0.0000 0.9750 0.0750 (  1618 PWs)   bands (ev):

   -10.5890 -10.0954  -6.3251  -6.3248  -4.4741  -4.4723   7.1539   7.6250
     8.2216   8.6786   9.0925   9.5520  10.8401  11.1224  12.7607  12.8667
    14.2462  14.2815  14.5757  14.9482  16.6799  16.9557  24.8374  25.2874
    27.2440  27.7363  28.3059  28.4686  29.2204  29.6491  31.1891  31.2063
    32.1572  32.3929  34.1782  34.2155  34.9206  34.9381  36.4530  36.5052
    42.9753  43.0705  46.1050  46.1874

          k = 0.0000 0.9500 0.1500 (  1622 PWs)   bands (ev):

   -10.7436  -9.7569  -6.8800  -6.8793  -3.7463  -3.7421   5.7156   6.6545
     8.0460   8.9619   9.2649  10.0350  11.1094  11.9103  12.3474  12.4201
    14.2341  14.6587  14.7226  15.7761  17.2820  17.7365  23.6516  24.5175
    26.4879  26.6659  27.8807  28.7696  29.6296  29.8789  30.0071  30.9591
    32.2961  32.5125  34.3118  34.5698  35.6589  35.7292  38.3565  38.3750
    42.0680  42.6348  45.4745  45.6127

          k =-0.0000 0.9250 0.2250 (  1622 PWs)   bands (ev):

   -10.8365  -9.3576  -7.4294  -7.4283  -2.9109  -2.9020   4.2785   5.6809
     7.9042   9.1909   9.3525  10.1248  10.5576  11.6800  12.9349  13.0736
    14.4926  14.8660  15.2021  16.6342  18.2631  18.7265  22.3256  23.6006
    25.4494  25.7916  26.9379  27.5904  28.2547  29.9436  30.8811  32.0321
    32.3224  32.6539  34.9656  35.7620  36.4995  36.6363  40.2766  40.3975
    40.8581  42.0292  44.4882  44.8992

          k =-0.0000 0.9000 0.3000 (  1623 PWs)   bands (ev):

   -10.8677  -8.8982  -7.9348  -7.9335  -2.0137  -1.9928   2.8805   4.7415
     7.7688   9.2517   9.2673   9.7965  10.1600  11.7142  13.4143  13.5786
    15.1516  15.3174  15.8393  17.6505  19.4568  19.7800  20.9869  22.6475
    24.2211  25.0944  25.5658  26.0520  27.3573  30.2045  31.2096  32.3270
    32.7323  33.9714  35.7935  37.1205  37.4396  37.6206  39.5405  41.0700
    41.8860  42.5060  43.2054  44.0324

          k = 0.0000 0.8750 0.3750 (  1614 PWs)   bands (ev):

   -10.8371  -8.3865  -8.3850  -8.3795  -1.0970  -1.0299   1.5668   3.8545
     7.5808   8.5703   9.3220   9.3279  10.4466  12.0568  13.5314  13.9545
    15.8601  15.8983  16.8260  18.7662  19.6164  20.7259  20.8135  21.6953
    23.0831  23.7601  24.7385  24.7954  26.7620  30.1493  30.9635  32.8748
    33.7870  35.1014  36.3743  38.1733  38.3866  38.4342  39.2003  40.2595
    40.5984  42.7179  43.8405  44.4202

          k = 0.0000 0.8500 0.4500 (  1612 PWs)   bands (ev):

   -10.7449  -8.7807  -8.7791  -7.8031  -0.5088  -0.0348   0.6880   3.0419
     7.2505   7.7882   8.9970   9.4342  10.9213  12.5324  13.6162  14.2064
    16.4692  16.4714  18.1068  18.3385  19.5213  20.4726  21.3333  21.9862
    22.3339  22.4537  24.0377  24.5889  26.3771  29.9116  30.6442  33.4714
    34.9604  35.1138  36.8771  37.4559  38.6957  39.2287  39.2464  40.2874
    40.9495  42.0504  43.6613  44.0319

          k = 0.0000 0.8250 0.5250 (  1611 PWs)   bands (ev):

   -10.5910  -9.1158  -9.1142  -7.1719  -1.3276   0.8945   1.3239   2.3992
     6.7607   7.0361   8.9093   9.5894  11.4608  13.0778  13.7069  14.4433
    16.9396  16.9632  17.1760  19.1754  19.4664  19.5291  20.3147  21.5302
    21.9645  23.6050  24.6420  24.7599  26.3595  29.6047  30.3500  33.1954
    35.0976  35.7619  36.0999  36.1829  38.6328  39.9961  40.2719  41.1934
    41.5013  42.3766  43.4273  43.7552

          k =-0.0000 0.8000 0.6000 (  1614 PWs)   bands (ev):

   -10.3758  -9.3908  -9.3891  -6.4942  -2.4708   1.0990   2.3916   2.5764
     6.2005   6.3437   9.0021   9.7942  12.0299  13.6553  13.7928  14.6908
    15.9047  17.1020  17.5849  17.8061  18.8980  19.1563  20.9232  20.9542
    21.8026  24.8427  24.9192  26.2099  27.0000  29.2449  30.0942  32.1747
    34.0005  34.0012  36.3105  37.0070  39.4228  40.3043  40.8569  41.5336
    41.6696  43.3063  43.4957  43.8120

          k =-0.0000 0.7750 0.6750 (  1621 PWs)   bands (ev):

   -10.0995  -9.6052  -9.6033  -5.8037  -3.5570   0.5741   3.5051   3.5417
     5.6733   5.7553   9.2166  10.0452  12.5628  13.8174  14.1870  14.6934
    15.0920  16.3051  17.0738  17.2055  18.4987  19.0391  20.5394  21.1625
    22.7894  24.7640  26.1813  28.0227  28.0667  28.8032  29.8426  31.2562
    32.1818  32.4127  37.3065  37.4019  39.6540  40.5134  40.5452  41.4811
    41.6764  43.3995  43.6503  44.1904

          k = 0.0000 0.7500 0.7500 (  1624 PWs)   bands (ev):

    -9.7765  -9.7584  -9.7422  -5.3966  -4.2578  -0.0120   4.3406   4.3546
     5.4792   5.5630   9.5266  10.3291  12.7269  13.6078  14.1417  14.2809
    14.9875  15.4718  16.3476  16.8350  18.8495  18.9512  20.6215  20.8902
    24.1214  24.8972  26.8823  28.4884  28.6773  29.5284  29.5895  30.6675
    31.0469  31.5879  37.2027  37.9721  38.9129  39.5732  40.8147  41.4285
    41.9109  43.3824  43.9179  44.2659

          k = 0.0000 0.7250 0.7750 (  1616 PWs)   bands (ev):

    -9.7703  -9.7523  -9.7361  -5.5698  -4.0739  -0.0075   4.1867   4.2022
     5.6385   5.7280   9.5361  10.3297  12.6076  13.5266  14.1795  14.2557
    14.8762  15.6067  16.4916  16.8927  18.8596  18.9552  20.6207  20.8872
    23.9247  25.0936  26.6962  28.4191  28.5683  29.0941  29.6287  30.8820
    31.4603  31.7760  37.1950  37.5936  38.9804  39.8565  40.7511  41.4072
    41.9356  43.2909  44.0223  44.1468

          k = 0.0000 0.7000 0.8000 (  1621 PWs)   bands (ev):

    -9.7516  -9.7339  -9.7179  -5.9302  -3.6814   0.0057   3.8541   3.8767
     5.9842   6.0934   9.5650  10.3306  12.3319  13.3050  13.9556  14.3733
    14.7808  15.9197  16.8279  17.0540  18.8906  18.9672  20.6167  20.8773
    23.5554  25.4579  26.2649  27.8915  28.1403  28.8484  29.7661  31.2085
    32.2610  32.3153  36.8992  37.1717  38.9988  40.4045  40.5941  41.3921
    41.9494  43.1787  43.9491  44.1442

          k = 0.0000 0.6750 0.8250 (  1620 PWs)   bands (ev):

    -9.7206  -9.7032  -9.6875  -6.3404  -3.2182   0.0273   3.4685   3.5017
     6.3914   6.5335   9.6141  10.3292  12.0012  12.9933  13.6891  14.1147
    15.0917  16.3035  17.2467  17.2937  18.9441  18.9874  20.6043  20.8572
    23.1525  25.7456  25.8271  27.2412  27.3186  28.9973  29.8769  31.6714
    32.9066  33.2343  36.1680  37.1335  38.9661  40.3962  40.7234  41.6056
    41.8607  43.1663  43.7440  44.0914

          k = 0.0000 0.6500 0.8500 (  1616 PWs)   bands (ev):

    -9.6772  -9.6603  -9.6450  -6.7610  -2.7243   0.0562   3.0716   3.1172
     6.8177   7.0060   9.6853  10.3196  11.6638  12.6368  13.4044  13.7653
    15.5254  16.7088  17.5867  17.7021  19.0163  19.0239  20.5737  20.8209
    22.7454  25.2186  26.0326  26.3201  26.9105  29.1120  29.9823  32.2319
    33.6201  34.0654  35.5512  37.0824  38.8927  40.1895  40.6861  41.6727
    42.0398  43.1639  43.6263  43.9916

          k = 0.0000 0.6250 0.8750 (  1616 PWs)   bands (ev):

    -9.6213  -9.6051  -9.5904  -7.1798  -2.2130   0.0906   2.6781   2.7377
     7.2450   7.4947   9.7809  10.2909  11.3468  12.2623  13.1128  13.4122
    15.9969  17.1094  17.9132  18.1710  19.0578  19.1359  20.5109  20.7577
    22.3466  24.7321  25.4005  25.7469  27.0199  29.1905  30.0994  32.8146
    34.2400  34.3446  35.6497  37.0249  38.7708  39.9900  40.5535  41.4449
    42.2645  42.9972  43.6249  44.0640

          k = 0.0000 0.6000 0.9000 (  1613 PWs)   bands (ev):

    -9.5530  -9.5377  -9.5237  -7.5923  -1.6914   0.1274   2.2958   2.3719
     7.6599   7.9887   9.9032  10.2254  11.0757  11.8836  12.8251  13.0748
    16.4908  17.4867  18.2542  18.6170  19.1353  19.2873  20.4010  20.6508
    21.9698  24.3251  24.4891  25.2572  27.3777  29.2392  30.2386  33.1325
    33.9986  35.0266  36.4721  36.9794  38.5960  39.8059  40.4213  41.2220
    42.1963  42.7013  43.3547  44.1618

          k = 0.0000 0.5750 0.9250 (  1615 PWs)   bands (ev):

    -9.4724  -9.4581  -9.4449  -7.9961  -1.1669   0.1605   1.9324   2.0281
     8.0493   8.4695  10.0524  10.1124  10.8727  11.5086  12.5554  12.7663
    17.0003  17.8264  18.5842  18.9035  19.3684  19.4708  20.2524  20.4802
    21.6361  23.5862  24.0340  24.7902  27.7721  29.2554  30.4080  32.7042
    34.4131  35.5811  36.9950  37.3649  38.4036  39.6446  40.3117  41.0303
    42.0048  42.3686  42.9608  43.7658

          k = 0.0000 0.5500 0.9500 (  1615 PWs)   bands (ev):

    -9.3794  -9.3663  -9.3540  -8.3900  -0.6540   0.1790   1.6024   1.7190
     8.3997   8.8812  10.0044  10.2199  10.7296  11.1423  12.3260  12.5010
    17.5200  18.1194  18.8671  18.9703  19.5678  19.7648  20.2053  20.2640
    21.3670  22.6983  23.8745  24.4005  28.1604  29.2231  30.6146  32.1031
    34.9991  35.8836  37.1458  37.8170  38.5900  39.5208  40.2311  40.8784
    41.7856  42.0478  42.6217  43.2073

          k = 0.0000 0.5250 0.9750 (  1615 PWs)   bands (ev):

    -9.2740  -9.2625  -9.2511  -8.7735  -0.1942   0.1626   1.3475   1.4656
     8.6992   9.0586  10.0918  10.3756  10.6051  10.7899  12.1769  12.2962
    18.0366  18.3534  18.9296  19.0008  19.4781  19.8121  20.3913  20.4663
    21.1739  21.8324  23.8455  24.1100  28.5269  29.1079  30.8641  31.5615
    35.5225  35.9249  37.3713  37.6329  39.2480  39.4586  40.2484  40.7381
    41.5934  41.7844  42.4206  42.7058

          k = 0.0000 0.5000 1.0000 (  1628 PWs)   bands (ev):

    -9.1562  -9.1562  -9.1362  -9.1362   0.0833   0.0833   1.2966   1.2966
     8.9384   8.9384  10.4566  10.4566  10.4637  10.4637  12.1695  12.1695
    18.4295  18.4295  18.8591  18.8591  19.5854  19.5854  20.7402  20.7402
    21.1423  21.1423  23.9272  23.9272  28.8634  28.8634  31.1589  31.1589
    35.8297  35.8297  37.4886  37.4886  39.4680  39.4680  40.5252  40.5252
    41.5871  41.5871  42.4126  42.4126

          k = 0.0000 0.4500 0.9000 (  1616 PWs)   bands (ev):

   -10.3131  -8.8417  -8.8406  -8.3508  -0.3772  -0.1139   0.9187   2.5482
     7.8562   8.5999   9.5509   9.7246  10.4775  12.0369  12.7722  13.3988
    17.0689  17.1393  18.5904  18.7036  19.3499  20.1658  20.7531  21.5259
    22.0128  22.1233  23.8729  24.5872  27.0200  29.7512  30.6903  32.7589
    35.1949  35.2912  37.0337  37.8511  39.0378  39.2237  39.6567  40.2941
    40.7138  42.4182  43.3746  44.0769

          k =-0.0000 0.4000 0.8000 (  1616 PWs)   bands (ev):

   -11.3629  -8.4162  -8.4139  -7.4370  -0.7962  -0.5869   0.7263   4.2399
     6.7362   7.2093   8.4360   8.8897  11.2859  12.7409  14.6552  14.7682
    15.2933  15.5492  16.8902  18.7112  19.4268  21.6389  21.9597  22.0197
    23.2159  23.2424  24.0274  24.7005  26.6761  30.2561  30.8563  33.4061
    33.8237  35.6249  36.3725  37.6598  38.2142  38.8602  38.9485  39.7979
    40.5168  41.2368  43.3587  44.5639

          k =-0.0000 0.3500 0.7000 (  1618 PWs)   bands (ev):

   -12.2929  -7.8710  -7.8671  -6.4074  -1.1457  -0.9875   0.6949   5.1498
     5.8625   6.4551   7.5442   7.9887  12.2595  12.2958  12.9533  14.3659
    14.4789  17.1034  18.2031  18.7810  19.5400  20.9031  22.3257  23.1870
    23.6868  24.6442  25.1942  26.0678  28.0224  30.5653  30.9803  32.6030
    32.6162  35.3815  36.0040  37.1126  37.8286  38.6744  39.0363  39.3373
    39.9219  40.4693  41.7351  43.9631

          k =-0.0000 0.3000 0.6000 (  1609 PWs)   bands (ev):

   -13.1016  -7.2079  -7.2019  -5.2661  -1.4032  -1.2827   0.8017   4.2328
     4.6181   6.3774   7.1350   8.5747  10.4929  10.9015  12.6676  13.4983
    15.2920  18.2894  19.1264  19.3236  19.7337  20.5915  22.8095  24.7422
    25.1651  26.1629  26.8133  27.6926  29.6503  30.2494  30.2579  32.1480
    32.4627  34.0815  35.7015  35.8677  37.2656  37.5690  38.9028  38.9334
    40.0824  40.5257  41.9513  42.8252

          k = 0.0000 0.2500 0.5000 (  1610 PWs)   bands (ev):

   -13.7876  -6.4297  -6.4212  -4.0230  -1.5521  -1.4659   1.0287   3.2098
     3.4877   5.6851   6.3198   8.5104   9.0095  10.7213  11.1649  14.6843
    15.9874  16.4030  19.2988  20.0168  21.1773  23.1562  23.8173  26.2268
    26.7727  27.6622  28.3077  29.1718  29.3906  29.4469  31.4031  31.7348
    32.9940  33.4571  33.8651  35.4341  36.4542  37.1901  37.7654  38.8854
    39.1816  40.5537  41.2524  42.0463

          k = 0.0000 0.2000 0.4000 (  1613 PWs)   bands (ev):

   -14.3500  -5.5410  -5.5292  -2.7190  -1.5546  -1.5366   1.3451   2.2472
     2.4886   5.0634   5.4651   6.7159   7.3557   9.7298  12.9503  13.7368
    16.0131  17.6372  19.6499  20.3999  22.2865  25.6011  25.8009  26.9812
    27.5177  28.5069  28.7812  29.3574  30.4061  30.7519  31.0682  31.3511
    33.3185  33.8366  34.0891  34.7183  35.6836  36.3491  37.1204  38.8280
    38.9679  40.1633  40.2637  41.5865

          k = 0.0000 0.1500 0.3000 (  1607 PWs)   bands (ev):

   -14.7881  -4.5495  -4.5341  -1.8066  -1.4996  -0.9777   1.3639   1.3917
     1.9518   4.3590   4.4253   5.2482   6.1260   8.3721  11.7004  15.2942
    17.4402  18.9541  20.0871  20.8789  23.0000  26.1421  26.3059  27.3798
    28.3970  29.0462  29.2983  30.3515  30.4036  31.1814  31.5867  32.1695
    33.4297  34.0293  34.5166  35.5056  35.6225  36.7244  37.2576  38.5720
    39.1987  39.7147  39.7171  41.1494

          k =-0.0000 0.1000 0.2000 (  1600 PWs)   bands (ev):

   -15.1014  -3.4704  -3.4520  -1.5759  -1.3700   0.3159   0.5490   0.7506
     2.2545   3.1576   3.3688   4.5978   5.3035   7.0190  10.0336  17.6987
    18.9358  20.3199  20.5723  21.4482  23.5778  25.2570  25.2889  26.5833
    27.0774  28.6426  30.7441  31.2968  31.8443  32.1844  32.6313  33.6306
    33.7578  34.3868  35.6301  36.3434  37.0943  37.6595  37.7523  38.5815
    39.1033  39.6495  39.7339  40.7176

          k =-0.0000 0.0500 0.1000 (  1623 PWs)   bands (ev):

   -15.2896  -2.3374  -2.3206  -1.4068  -1.1949  -0.2611  -0.2301   1.5228
     2.0329   2.4284   3.2563   4.3502   4.6640   5.5599   8.9587  20.0072
    20.3924  21.0164  21.6667  22.1128  23.9912  24.4469  24.4752  25.2885
    25.3629  26.2588  30.5688  33.3049  33.3580  33.9350  34.1371  34.5821
    34.8636  35.3128  36.9259  37.2949  37.6809  38.3042  38.3597  38.9740
    38.9806  39.6470  39.6751  40.2135

          k = 0.0000 0.0000 0.0000 (  1639 PWs)   bands (ev):

   -15.3523  -1.3265  -1.3265  -1.3265  -1.0997  -1.0997  -1.0997   1.3544
     1.5640   3.5675   3.5675   4.2758   4.2758   4.2758   8.5989  21.2187
    21.2187  21.2187  22.7020  22.7020  24.0182  24.0182  24.0182  24.5764
    24.5764  24.5764  30.3573  34.1055  34.1055  34.1055  35.2484  35.2484
    35.7124  35.7124  37.6231  37.6231  37.6231  39.4522  39.4522  39.4522
    39.5162  39.5162  39.5162  39.9047

     Writing output data file Si.save

     init_run     :      0.16s CPU      0.16s WALL (       1 calls)
     electrons    :    142.74s CPU    149.56s WALL (       1 calls)

     Called by init_run:
     wfcinit      :      0.00s CPU      0.00s WALL (       1 calls)
     potinit      :      0.04s CPU      0.05s WALL (       1 calls)

     Called by electrons:
     c_bands      :    142.74s CPU    149.56s WALL (       1 calls)
     v_of_rho     :      0.04s CPU      0.04s WALL (       1 calls)

     Called by c_bands:
     init_us_2    :      0.06s CPU      0.08s WALL (      51 calls)
     cegterg      :    135.85s CPU    142.36s WALL (      93 calls)

     Called by *egterg:
     h_psi        :     78.84s CPU     82.54s WALL (    1436 calls)
     g_psi        :      0.21s CPU      0.22s WALL (    1292 calls)
     cdiaghg      :     14.25s CPU     14.77s WALL (    1343 calls)

     Called by h_psi:
     add_vuspsi   :      2.23s CPU      2.32s WALL (    1436 calls)

     General routines
     calbec       :      2.48s CPU      2.59s WALL (    1436 calls)
     fft          :      0.02s CPU      0.02s WALL (      10 calls)
     fftw         :     70.27s CPU     73.53s WALL (   63334 calls)
     davcio       :      0.01s CPU      0.02s WALL (      51 calls)

     Parallel routines
     fft_scatter  :      1.66s CPU      1.69s WALL (   63344 calls)

     PWSCF        :  2m24.19s CPU     2m31.29s WALL


   This run was terminated on:  23: 4:23  13Feb2023            

=------------------------------------------------------------------------------=
   JOB DONE.
=------------------------------------------------------------------------------=
