
     Program PWSCF v.5.1 starts on 13Feb2023 at 22:58:12 

     This program is part of the open-source Quantum ESPRESSO suite
     for quantum simulation of materials; please cite
         "P. Giannozzi et al., J. Phys.:Condens. Matter 21 395502 (2009);
          URL http://www.quantum-espresso.org", 
     in publications or presentations arising from this work. More details at
     http://www.quantum-espresso.org/quote

     Parallel version (MPI), running on     1 processors
     Waiting for input...
     Reading input from standard input

     Current dimensions of program PWSCF are:
     Max number of different atomic species (ntypx) = 10
     Max number of k-points (npk) =  40000
     Max angular momentum in pseudopotentials (lmaxx) =  3

     Atomic positions and unit cell read from directory:
     ./out/Si.save/

               file Si.pbe-mt_fhi.UPF: wavefunction(s)  4f renormalized

     Subspace diagonalization in iterative solution of the eigenvalue problem:
     a serial algorithm will be used


     G-vector sticks info
     --------------------
     sticks:   dense  smooth     PW     G-vecs:    dense   smooth      PW
     Sum         733     733    223                12939    12939    2229



     bravais-lattice index     =            2
     lattice parameter (alat)  =      10.2623  a.u.
     unit-cell volume          =     270.1967 (a.u.)^3
     number of atoms/cell      =            2
     number of atomic types    =            1
     number of electrons       =        88.00
     number of Kohn-Sham states=           44
     kinetic-energy cutoff     =      50.0000  Ry
     charge density cutoff     =     200.0000  Ry
     Exchange-correlation      = PBE ( 1  4  3  4 0)

     celldm(1)=  10.262347  celldm(2)=   0.000000  celldm(3)=   0.000000
     celldm(4)=   0.000000  celldm(5)=   0.000000  celldm(6)=   0.000000

     crystal axes: (cart. coord. in units of alat)
               a(1) = (  -0.500000   0.000000   0.500000 )  
               a(2) = (   0.000000   0.500000   0.500000 )  
               a(3) = (  -0.500000   0.500000   0.000000 )  

     reciprocal axes: (cart. coord. in units 2 pi/alat)
               b(1) = ( -1.000000 -1.000000  1.000000 )  
               b(2) = (  1.000000  1.000000  1.000000 )  
               b(3) = ( -1.000000  1.000000 -1.000000 )  


     PseudoPot. # 1 for Si read from file:
     /home/acedemo/psudo/Si.pbe-mt_fhi.UPF
     MD5 check sum: 259057c2adf9952f9ced37ae3d9e311d
     Pseudo is Norm-conserving, Zval =  4.0
     Generated using FHI98PP, converted with fhi2upf.x v.5.0.2
     Using radial grid of  495 points,  3 beta functions with: 
                l(1) =   0
                l(2) =   1
                l(3) =   3

     atomic species   valence    mass     pseudopotential
        Si             4.00    28.08550     Si( 1.00)

     48 Sym. Ops., with inversion, found (24 have fractional translation)



   Cartesian axes

     site n.     atom                  positions (alat units)
         1           Si  tau(   1) = (   0.0000000   0.0000000   0.0000000  )
         2           Si  tau(   2) = (   0.2500000   0.2500000   0.2500000  )

     number of k points=    72 (tetrahedron method)
                       cart. coord. in units 2pi/alat
        k(    1) = (   0.0000000   0.0000000   0.0000000), wk =   0.0011574
        k(    2) = (  -0.0833333   0.0833333  -0.0833333), wk =   0.0092593
        k(    3) = (  -0.1666667   0.1666667  -0.1666667), wk =   0.0092593
        k(    4) = (  -0.2500000   0.2500000  -0.2500000), wk =   0.0092593
        k(    5) = (  -0.3333333   0.3333333  -0.3333333), wk =   0.0092593
        k(    6) = (  -0.4166667   0.4166667  -0.4166667), wk =   0.0092593
        k(    7) = (   0.5000000  -0.5000000   0.5000000), wk =   0.0046296
        k(    8) = (   0.0000000   0.1666667   0.0000000), wk =   0.0069444
        k(    9) = (  -0.0833333   0.2500000  -0.0833333), wk =   0.0277778
        k(   10) = (  -0.1666667   0.3333333  -0.1666667), wk =   0.0277778
        k(   11) = (  -0.2500000   0.4166667  -0.2500000), wk =   0.0277778
        k(   12) = (  -0.3333333   0.5000000  -0.3333333), wk =   0.0277778
        k(   13) = (   0.5833333  -0.4166667   0.5833333), wk =   0.0277778
        k(   14) = (   0.5000000  -0.3333333   0.5000000), wk =   0.0277778
        k(   15) = (   0.4166667  -0.2500000   0.4166667), wk =   0.0277778
        k(   16) = (   0.3333333  -0.1666667   0.3333333), wk =   0.0277778
        k(   17) = (   0.2500000  -0.0833333   0.2500000), wk =   0.0277778
        k(   18) = (   0.1666667  -0.0000000   0.1666667), wk =   0.0138889
        k(   19) = (   0.0000000   0.3333333   0.0000000), wk =   0.0069444
        k(   20) = (  -0.0833333   0.4166667  -0.0833333), wk =   0.0277778
        k(   21) = (  -0.1666667   0.5000000  -0.1666667), wk =   0.0277778
        k(   22) = (  -0.2500000   0.5833333  -0.2500000), wk =   0.0277778
        k(   23) = (   0.6666667  -0.3333333   0.6666667), wk =   0.0277778
        k(   24) = (   0.5833333  -0.2500000   0.5833333), wk =   0.0277778
        k(   25) = (   0.5000000  -0.1666667   0.5000000), wk =   0.0277778
        k(   26) = (   0.4166667  -0.0833333   0.4166667), wk =   0.0277778
        k(   27) = (   0.3333333   0.0000000   0.3333333), wk =   0.0138889
        k(   28) = (   0.0000000   0.5000000   0.0000000), wk =   0.0069444
        k(   29) = (  -0.0833333   0.5833333  -0.0833333), wk =   0.0277778
        k(   30) = (  -0.1666667   0.6666667  -0.1666667), wk =   0.0277778
        k(   31) = (   0.7500000  -0.2500000   0.7500000), wk =   0.0277778
        k(   32) = (   0.6666667  -0.1666667   0.6666667), wk =   0.0277778
        k(   33) = (   0.5833333  -0.0833333   0.5833333), wk =   0.0277778
        k(   34) = (   0.5000000   0.0000000   0.5000000), wk =   0.0138889
        k(   35) = (   0.0000000   0.6666667   0.0000000), wk =   0.0069444
        k(   36) = (  -0.0833333   0.7500000  -0.0833333), wk =   0.0277778
        k(   37) = (   0.8333333  -0.1666667   0.8333333), wk =   0.0277778
        k(   38) = (   0.7500000  -0.0833333   0.7500000), wk =   0.0277778
        k(   39) = (   0.6666667   0.0000000   0.6666667), wk =   0.0138889
        k(   40) = (   0.0000000   0.8333333   0.0000000), wk =   0.0069444
        k(   41) = (   0.9166667  -0.0833333   0.9166667), wk =   0.0277778
        k(   42) = (   0.8333333   0.0000000   0.8333333), wk =   0.0138889
        k(   43) = (   0.0000000  -1.0000000   0.0000000), wk =   0.0034722
        k(   44) = (  -0.1666667   0.3333333   0.0000000), wk =   0.0277778
        k(   45) = (  -0.2500000   0.4166667  -0.0833333), wk =   0.0555556
        k(   46) = (  -0.3333333   0.5000000  -0.1666667), wk =   0.0555556
        k(   47) = (   0.5833333  -0.4166667   0.7500000), wk =   0.0555556
        k(   48) = (   0.5000000  -0.3333333   0.6666667), wk =   0.0277778
        k(   49) = (  -0.1666667   0.5000000   0.0000000), wk =   0.0277778
        k(   50) = (  -0.2500000   0.5833333  -0.0833333), wk =   0.0555556
        k(   51) = (   0.6666667  -0.3333333   0.8333333), wk =   0.0555556
        k(   52) = (   0.5833333  -0.2500000   0.7500000), wk =   0.0555556
        k(   53) = (   0.5000000  -0.1666667   0.6666667), wk =   0.0555556
        k(   54) = (   0.4166667  -0.0833333   0.5833333), wk =   0.0555556
        k(   55) = (   0.3333333   0.0000000   0.5000000), wk =   0.0277778
        k(   56) = (  -0.1666667   0.6666667  -0.0000000), wk =   0.0277778
        k(   57) = (   0.7500000  -0.2500000   0.9166667), wk =   0.0555556
        k(   58) = (   0.6666667  -0.1666667   0.8333333), wk =   0.0555556
        k(   59) = (   0.5833333  -0.0833333   0.7500000), wk =   0.0555556
        k(   60) = (   0.5000000   0.0000000   0.6666667), wk =   0.0277778
        k(   61) = (   0.8333333  -0.1666667   1.0000000), wk =   0.0277778
        k(   62) = (   0.7500000  -0.0833333   0.9166667), wk =   0.0555556
        k(   63) = (   0.6666667   0.0000000   0.8333333), wk =   0.0277778
        k(   64) = (  -0.1666667  -1.0000000   0.0000000), wk =   0.0138889
        k(   65) = (   0.6666667  -0.3333333   1.0000000), wk =   0.0277778
        k(   66) = (   0.5833333  -0.2500000   0.9166667), wk =   0.0555556
        k(   67) = (   0.5000000  -0.1666667   0.8333333), wk =   0.0277778
        k(   68) = (   0.6666667  -0.1666667   1.0000000), wk =   0.0277778
        k(   69) = (   0.5833333  -0.0833333   0.9166667), wk =   0.0555556
        k(   70) = (   0.5000000   0.0000000   0.8333333), wk =   0.0277778
        k(   71) = (  -0.3333333  -1.0000000   0.0000000), wk =   0.0138889
        k(   72) = (  -0.5000000  -1.0000000   0.0000000), wk =   0.0069444

     Dense  grid:    12939 G-vectors     FFT dimensions: (  36,  36,  36)

     Largest allocated arrays     est. size (Mb)     dimensions
        Kohn-Sham Wavefunctions         1.10 Mb     (    1639,   44)
        NL pseudopotentials             0.55 Mb     (    1639,   22)
        Each V/rho on FFT grid          0.71 Mb     (   46656)
        Each G-vector array             0.10 Mb     (   12939)
        G-vector shells                 0.00 Mb     (     180)
     Largest temporary arrays     est. size (Mb)     dimensions
        Auxiliary wavefunctions         4.40 Mb     (    1639,  176)
        Each subspace H/S matrix        0.47 Mb     (     176,  176)
        Each <psi_i|beta_j> matrix      0.01 Mb     (      22,   44)

     The potential is recalculated from file :
     ./out/Si.save/charge-density.dat

     Starting wfc are   32 randomized atomic wfcs +   12 random wfc

     Band Structure Calculation
     Davidson diagonalization with overlap
     c_bands:  1 eigenvalues not converged

     ethr =  1.82E-12,  avg # of iterations = 26.8

     Warning: ef = 46.495423 is above the highest band at k-point   1
              e  =  39.904694

     Warning: ef = 46.495423 is above the highest band at k-point   2
              e  =  39.673161

     Warning: ef = 46.495423 is above the highest band at k-point   3
              e  =  40.861510

     Warning: ef = 46.495423 is above the highest band at k-point   4
              e  =  41.806465

     Warning: ef = 46.495423 is above the highest band at k-point   5
              e  =  42.978982

     Warning: ef = 46.495423 is above the highest band at k-point   6
              e  =  44.324093

     Warning: ef = 46.495423 is above the highest band at k-point   7
              e  =  45.608378

     Warning: ef = 46.495423 is above the highest band at k-point   8
              e  =  40.727633

     Warning: ef = 46.495423 is above the highest band at k-point   9
              e  =  40.286388

     Warning: ef = 46.495423 is above the highest band at k-point  10
              e  =  40.520894

     Warning: ef = 46.495423 is above the highest band at k-point  11
              e  =  42.016189

     Warning: ef = 46.495423 is above the highest band at k-point  12
              e  =  42.431070

     Warning: ef = 46.495423 is above the highest band at k-point  13
              e  =  44.870168

     Warning: ef = 46.495423 is above the highest band at k-point  14
              e  =  45.298840

     Warning: ef = 46.495423 is above the highest band at k-point  15
              e  =  42.593996

     Warning: ef = 46.495423 is above the highest band at k-point  16
              e  =  42.098114

     Warning: ef = 46.495423 is above the highest band at k-point  17
              e  =  41.536550

     Warning: ef = 46.495423 is above the highest band at k-point  18
              e  =  40.825937

     Warning: ef = 46.495423 is above the highest band at k-point  19
              e  =  41.636889

     Warning: ef = 46.495423 is above the highest band at k-point  20
              e  =  40.853620

     Warning: ef = 46.495423 is above the highest band at k-point  21
              e  =  41.000421

     Warning: ef = 46.495423 is above the highest band at k-point  22
              e  =  42.240084

     Warning: ef = 46.495423 is above the highest band at k-point  23
              e  =  44.034067

     Warning: ef = 46.495423 is above the highest band at k-point  24
              e  =  44.530012

     Warning: ef = 46.495423 is above the highest band at k-point  25
              e  =  45.144635

     Warning: ef = 46.495423 is above the highest band at k-point  26
              e  =  43.444182

     Warning: ef = 46.495423 is above the highest band at k-point  27
              e  =  43.205178

     Warning: ef = 46.495423 is above the highest band at k-point  28
              e  =  43.209807

     Warning: ef = 46.495423 is above the highest band at k-point  29
              e  =  42.119326

     Warning: ef = 46.495423 is above the highest band at k-point  30
              e  =  42.061049

     Warning: ef = 46.495423 is above the highest band at k-point  31
              e  =  43.671323

     Warning: ef = 46.495423 is above the highest band at k-point  32
              e  =  44.545458

     Warning: ef = 46.495423 is above the highest band at k-point  33
              e  =  44.244110

     Warning: ef = 46.495423 is above the highest band at k-point  34
              e  =  44.973564

     Warning: ef = 46.495423 is above the highest band at k-point  35
              e  =  41.464216

     Warning: ef = 46.495423 is above the highest band at k-point  36
              e  =  42.847767

     Warning: ef = 46.495423 is above the highest band at k-point  37
              e  =  43.817020

     Warning: ef = 46.495423 is above the highest band at k-point  38
              e  =  44.235034

     Warning: ef = 46.495423 is above the highest band at k-point  39
              e  =  43.787406

     Warning: ef = 46.495423 is above the highest band at k-point  40
              e  =  44.560601

     Warning: ef = 46.495423 is above the highest band at k-point  41
              e  =  45.595004

     Warning: ef = 46.495423 is above the highest band at k-point  42
              e  =  44.963511

     Warning: ef = 46.495423 is above the highest band at k-point  44
              e  =  41.333187

     Warning: ef = 46.495423 is above the highest band at k-point  45
              e  =  41.854243

     Warning: ef = 46.495423 is above the highest band at k-point  46
              e  =  43.421876

     Warning: ef = 46.495423 is above the highest band at k-point  47
              e  =  44.101984

     Warning: ef = 46.495423 is above the highest band at k-point  48
              e  =  44.602708

     Warning: ef = 46.495423 is above the highest band at k-point  49
              e  =  40.804759

     Warning: ef = 46.495423 is above the highest band at k-point  50
              e  =  41.890176

     Warning: ef = 46.495423 is above the highest band at k-point  51
              e  =  43.162093

     Warning: ef = 46.495423 is above the highest band at k-point  52
              e  =  44.814587

     Warning: ef = 46.495423 is above the highest band at k-point  53
              e  =  44.989852

     Warning: ef = 46.495423 is above the highest band at k-point  54
              e  =  43.283275

     Warning: ef = 46.495423 is above the highest band at k-point  55
              e  =  42.482822

     Warning: ef = 46.495423 is above the highest band at k-point  56
              e  =  41.472118

     Warning: ef = 46.495423 is above the highest band at k-point  57
              e  =  42.466994

     Warning: ef = 46.495423 is above the highest band at k-point  58
              e  =  43.409562

     Warning: ef = 46.495423 is above the highest band at k-point  59
              e  =  43.950235

     Warning: ef = 46.495423 is above the highest band at k-point  60
              e  =  43.445198

     Warning: ef = 46.495423 is above the highest band at k-point  61
              e  =  44.606960

     Warning: ef = 46.495423 is above the highest band at k-point  62
              e  =  44.222758

     Warning: ef = 46.495423 is above the highest band at k-point  63
              e  =  44.048977

     Warning: ef = 46.495423 is above the highest band at k-point  64
              e  =  45.459132

     Warning: ef = 46.495423 is above the highest band at k-point  65
              e  =  43.611099

     Warning: ef = 46.495423 is above the highest band at k-point  66
              e  =  43.292418

     Warning: ef = 46.495423 is above the highest band at k-point  67
              e  =  44.115347

     Warning: ef = 46.495423 is above the highest band at k-point  68
              e  =  43.747236

     Warning: ef = 46.495423 is above the highest band at k-point  69
              e  =  44.316201

     Warning: ef = 46.495423 is above the highest band at k-point  70
              e  =  43.816706

     Warning: ef = 46.495423 is above the highest band at k-point  71
              e  =  44.038225

     Warning: ef = 46.495423 is above the highest band at k-point  72
              e  =  42.412641

     total cpu time spent up to now is      183.0 secs

     End of band structure calculation

          k = 0.0000 0.0000 0.0000 (  1639 PWs)   bands (ev):

   -15.3523  -1.3265  -1.3265  -1.3265  -1.0997  -1.0997  -1.0997   1.3544
     1.5640   3.5675   3.5675   4.2758   4.2758   4.2758   8.5989  21.2187
    21.2187  21.2187  22.7020  22.7020  24.0182  24.0182  24.0182  24.5764
    24.5764  24.5764  30.3573  34.1055  34.1055  34.1055  35.2484  35.2484
    35.7124  35.7124  37.6231  37.6231  37.6231  39.4522  39.4522  39.4522
    39.5162  39.5162  39.5162  39.9047

          k =-0.0833 0.0833-0.0833 (  1612 PWs)   bands (ev):

   -15.2477  -3.1119  -1.9179  -1.9179  -0.4503  -0.3406  -0.3406   1.7074
     2.3828   2.4131   2.4131   4.2463   5.6679   5.6679   9.1501  19.6982
    19.6982  20.1382  22.1854  22.1854  24.1979  24.1979  24.6564  24.6806
    26.7425  26.7425  30.6607  32.9017  33.3902  33.3902  33.8992  33.8992
    34.5926  34.5926  36.9598  36.9598  37.3622  37.5287  38.7518  39.1509
    39.1509  39.4823  39.6732  39.6732

          k =-0.1667 0.1667-0.1667 (  1591 PWs)   bands (ev):

   -14.9343  -5.1236  -2.4215  -2.4215  -0.6381   0.4078   0.4078   1.4821
     1.4821   1.8108   3.5284   5.5274   7.5688   7.5688  10.4857  16.9924
    16.9924  18.1537  22.3534  22.3534  24.4457  24.4457  24.9925  25.3684
    29.4324  29.4324  29.7737  30.8377  30.8377  32.3077  32.3077  32.5903
    33.1554  33.1554  34.1589  35.3100  36.3521  36.3521  37.7484  39.2258
    39.3208  39.3208  40.8364  40.8615

          k =-0.2500 0.2500-0.2500 (  1618 PWs)   bands (ev):

   -14.4126  -7.0158  -2.7372  -2.7372  -0.8595  -0.2011  -0.2011   1.2569
     2.3097   2.3097   4.6040   8.1201   9.6872   9.6872  12.2343  14.3322
    14.3322  16.0250  22.7286  22.7286  24.8129  24.8129  25.1616  25.5090
    26.9344  26.9344  27.8618  30.5978  30.6284  30.6284  30.9635  30.9635
    33.2922  33.3099  34.3447  34.3447  36.0091  36.0091  37.1376  39.0519
    39.0519  39.3957  40.5250  41.8065

          k =-0.3333 0.3333-0.3333 (  1616 PWs)   bands (ev):

   -13.6836  -8.7377  -2.8710  -2.8710  -1.0202  -1.0202  -0.9471   0.5812
     3.7639   3.7639   5.9316  11.0140  11.7738  11.7738  12.0735  12.0735
    13.9696  14.2655  22.8229  22.8229  23.3028  23.9385  23.9385  25.5330
    25.5766  25.5766  26.2204  29.0637  29.3041  29.3041  29.6277  29.6277
    31.5385  32.8059  35.6749  35.6749  37.3927  37.8646  37.8646  38.7303
    38.7303  39.8125  40.7175  42.9790

          k =-0.4167 0.4167-0.4167 (  1616 PWs)   bands (ev):

   -12.7490 -10.2719  -2.8541  -2.8541  -1.6270  -1.6270  -0.8844   0.0165
     5.4471   5.4471   7.3466   9.5371   9.5371  11.8852  14.3549  14.5183
    14.5183  16.4020  20.2760  20.2760  20.7477  22.3173  24.0068  24.0068
    26.2606  26.2606  27.0832  28.1424  28.1424  28.4782  28.4782  29.4756
    30.0396  31.7919  35.5741  35.5741  37.6300  38.1546  38.1546  39.2975
    41.7931  41.7931  42.9916  44.3241

          k = 0.5000-0.5000 0.5000 (  1622 PWs)   bands (ev):

   -11.6323 -11.5889  -2.8025  -2.8025  -1.8766  -1.8766  -0.7820  -0.2585
     7.0214   7.0214   7.7607   7.7607   8.2207  10.9245  16.6924  16.6924
    16.8406  17.7361  17.9374  17.9374  18.7890  20.1516  24.2499  24.2499
    27.0304  27.0304  27.2724  27.2724  27.7094  27.9549  27.9549  29.2014
    29.9964  31.1045  35.5391  35.5391  37.7185  38.0388  38.0388  39.0860
    44.0385  44.0385  44.7864  45.6084

          k = 0.0000 0.1667 0.0000 (  1615 PWs)   bands (ev):

   -15.2129  -2.6672  -2.6672  -1.9161  -1.7418   0.4760   0.4760   0.8453
     2.4557   2.4922   3.7077   4.4409   4.4409   6.2042   9.4783  19.4072
    19.4072  20.3478  21.3492  21.5336  24.3521  24.3521  24.5665  26.3963
    26.3963  27.1360  30.7548  32.3655  32.3655  32.9557  33.5089  33.9316
    34.8359  35.3537  36.6242  36.6242  37.2005  37.7338  37.7338  38.8278
    38.8278  40.5892  40.6811  40.7276

          k =-0.0833 0.2500-0.0833 (  1599 PWs)   bands (ev):

   -14.9691  -4.3890  -3.2318  -2.3246  -1.2052  -0.3236   0.7350   1.3589
     2.8112   2.8997   3.6459   4.9962   5.9642   7.4911  10.7820  16.9573
    17.4959  20.0853  20.1464  21.2867  23.9555  24.5684  26.2243  26.9172
    27.9871  29.7677  29.9048  30.7663  30.7930  31.7844  31.8386  32.7983
    33.6888  34.1837  34.9949  35.8417  36.0000  37.5238  37.9844  38.7854
    39.1482  39.4034  39.9639  40.2864

          k =-0.1667 0.3333-0.1667 (  1610 PWs)   bands (ev):

   -14.5168  -6.3161  -3.6013  -2.6902  -1.5667   0.1011   0.5271   1.2003
     2.4736   3.0585   4.7637   7.2903   7.9981   9.3202  12.5439  14.2380
    15.1046  17.9255  20.5053  21.5564  23.8400  24.9465  26.4254  27.0812
    27.2799  28.5983  28.9611  29.1026  29.5673  31.2487  31.8150  31.9162
    32.6316  33.6928  34.1985  34.3711  35.3927  37.1061  37.4370  38.8816
    38.9636  39.8409  39.9748  40.5209

          k =-0.2500 0.4167-0.2500 (  1606 PWs)   bands (ev):

   -13.8570  -8.0943  -3.7740  -2.9466  -2.3925   0.3383   0.4018   1.0924
     2.1484   4.3978   6.0766  10.1238  10.2442  11.4308  11.6847  12.7499
    14.5625  15.7330  21.0240  21.9929  22.4162  24.8739  25.3389  25.3678
    25.9691  26.9660  27.1048  28.2221  28.2974  29.8223  30.6343  30.7690
    33.0015  33.7925  34.1092  35.4918  36.0467  37.5363  37.9636  38.8601
    38.9330  40.3382  40.7547  42.0162

          k =-0.3333 0.5000-0.3333 (  1616 PWs)   bands (ev):

   -12.9910  -9.6910  -3.7508  -3.3970  -2.6626  -0.3989   0.4411   0.8274
     3.3687   6.0002   7.4959   9.3139  10.4846  12.7119  12.9472  13.7029
    13.9912  16.7890  19.5882  21.4216  21.9803  22.7499  22.8772  23.9275
    25.3763  25.7924  26.3549  27.3195  28.7852  29.2174  29.3300  30.7463
    32.5553  32.8139  33.2333  35.3383  36.9097  38.6152  38.9263  39.9249
    41.4199  41.7036  42.3058  42.4311

          k = 0.5833-0.4167 0.5833 (  1615 PWs)   bands (ev):

   -11.9211 -11.0944  -3.9084  -3.5359  -2.4856  -0.9421   0.3640   0.6597
     5.0946   6.9489   8.0129   8.0253   9.3264  11.8441  15.3255  15.6076
    16.6592  17.2644  18.4045  19.4552  19.5055  21.1369  22.4446  23.4930
    24.9904  25.0463  27.1442  27.1888  28.1555  28.5087  29.4659  31.5454
    31.6493  32.1439  32.9675  34.8460  36.4470  39.0762  39.5449  41.6437
    42.2212  43.1076  43.6034  44.8702

          k = 0.5000-0.3333 0.5000 (  1616 PWs)   bands (ev):

   -12.3002 -10.6486  -4.2588  -3.1408  -2.0807  -1.2701   0.0424   1.0462
     5.0854   5.9642   7.4559   8.9617   9.9520  11.9962  13.8088  15.4814
    16.4170  17.6581  18.4810  19.2149  20.2198  22.2564  22.2865  23.3534
    25.1324  25.3524  26.9159  26.9991  28.3965  28.8220  29.3570  31.1118
    31.8348  32.6266  33.2555  34.5673  36.1849  39.3429  39.9076  41.0236
    41.6614  42.0651  43.0746  45.2988

          k = 0.4167-0.2500 0.4167 (  1611 PWs)   bands (ev):

   -13.3025  -9.1798  -4.4185  -2.6021  -1.4850  -1.3470  -0.1012   1.5610
     3.3252   4.5013   7.4536   9.5286  11.3335  12.0895  12.1725  13.9747
    13.9845  15.5878  21.1940  21.3484  21.7912  22.7245  23.8602  24.7349
    25.7252  26.0513  26.6041  27.1313  28.7535  29.5906  29.7179  30.4455
    32.8718  33.5944  33.7442  34.5546  36.2039  38.1520  39.2048  39.7682
    40.0268  40.6391  41.6605  42.5940

          k = 0.3333-0.1667 0.3333 (  1605 PWs)   bands (ev):

   -14.0999  -7.5205  -4.3817  -2.0367  -1.0698  -0.7397  -0.0407   1.7800
     1.9165   3.3669   5.9900   8.9753   9.1942  11.5919  11.9249  13.4736
    14.6085  15.9307  20.9312  21.6774  23.9724  24.4087  25.5096  25.5752
    27.0777  27.3126  27.8154  28.4088  28.6046  30.3139  30.8757  31.2153
    33.8101  33.8261  34.5390  34.6480  35.1826  36.1636  36.9060  38.2565
    39.6800  40.3177  41.0916  42.0981

          k = 0.2500-0.0833 0.2500 (  1600 PWs)   bands (ev):

   -14.6907  -5.6856  -4.1474  -1.5644  -0.4664  -0.0925   0.4122   0.6030
     1.2070   3.5514   4.6465   6.3509   7.0293   9.4083  11.5883  14.4805
    17.1710  17.9984  20.4693  21.3820  24.0820  24.7438  26.9335  26.9451
    28.2210  28.4203  29.5266  29.5794  30.4728  30.8310  31.9129  32.7510
    33.1128  33.4672  33.8431  34.4938  35.5150  36.5132  37.0561  38.0350
    38.7645  40.0239  41.1197  41.5366

          k = 0.1667-0.0000 0.1667 (  1592 PWs)   bands (ev):

   -15.0736  -3.7285  -3.7089  -1.1768  -0.8300   0.1256   0.2510   1.0773
     1.2866   3.3695   3.5056   4.6558   5.5563   7.4269  10.0358  17.1655
    19.4286  19.6446  20.5948  21.5213  23.9574  24.4563  26.0188  26.7868
    26.8792  28.8298  30.7767  31.4331  31.6787  31.9541  32.4775  33.5033
    33.6261  33.9313  35.4101  36.2502  36.6434  37.7204  37.7910  38.1444
    39.0198  39.7095  39.8009  40.8259

          k = 0.0000 0.3333 0.0000 (  1607 PWs)   bands (ev):

   -14.7951  -3.8606  -3.8606  -2.9095  -2.7668  -1.7187   2.3305   2.3305
     4.0370   4.1283   4.2230   4.9790   4.9790   7.4372  12.1513  16.8343
    16.8343  17.5023  19.6161  21.7393  24.7273  24.7273  24.7504  28.3910
    28.3910  29.2860  29.9720  29.9720  29.9774  30.4299  31.5431  34.0178
    34.2416  34.8868  35.0138  35.0138  36.3406  36.6370  36.6370  37.8419
    37.8419  39.4321  39.5924  41.6369

          k =-0.0833 0.4167-0.0833 (  1616 PWs)   bands (ev):

   -14.4125  -5.4455  -4.2942  -3.3122  -2.9267  -2.0381   2.6369   2.7423
     3.9865   4.0278   5.3866   6.5842   6.6679   8.5070  13.9327  14.3289
    15.0367  17.5400  19.1616  20.7978  23.6593  25.0456  25.8777  26.5644
    26.6677  27.8453  29.5337  30.2068  30.4009  31.3909  31.4489  32.5437
    33.7520  33.9214  34.2625  35.2247  35.3467  36.2501  37.4890  38.1034
    38.3470  39.0833  40.8266  40.8536

          k =-0.1667 0.5000-0.1667 (  1611 PWs)   bands (ev):

   -13.8223  -7.2558  -4.5295  -4.0744  -3.3982  -0.7550   1.9416   2.5630
     3.2963   5.2031   6.7109   8.7301   9.4102  10.2782  11.7138  12.8368
    15.9490  18.0442  18.3464  19.7497  21.8614  24.4510  24.8812  25.6085
    26.0403  26.7543  28.1743  28.6331  29.6731  30.9335  31.1820  31.4884
    32.1812  33.9562  33.9989  35.3480  37.0841  37.5854  38.1640  38.8111
    39.5325  40.0210  40.2894  41.0004

          k =-0.2500 0.5833-0.2500 (  1610 PWs)   bands (ev):

   -13.0255  -8.9088  -4.8852  -4.5658  -3.4513   0.6706   1.1479   2.5092
     2.7820   6.7258   8.0822   9.2842  10.6604  11.1227  12.3371  12.5406
    16.2772  18.1649  18.6951  18.7047  20.5721  23.0882  23.4057  24.1106
    24.9288  25.6203  26.3359  26.8883  28.7028  29.9130  30.9392  31.7872
    32.4805  33.3181  34.4980  36.7484  36.8995  36.9812  39.8584  39.9642
    40.7942  41.5384  41.6191  42.2401

          k = 0.6667-0.3333 0.6667 (  1607 PWs)   bands (ev):

   -12.0241 -10.3748  -5.5166  -4.4037  -3.2906   0.5290   1.4760   2.8029
     3.0038   6.9136   8.1056   8.6266  10.1917  13.6937  14.0993  14.3798
    15.8698  16.2863  19.3156  19.7266  20.7976  21.1565  21.8938  22.3735
    22.8019  23.4440  26.9314  27.1212  28.2491  28.7164  30.3646  32.4306
    32.7484  33.5319  33.9482  35.9489  36.0111  39.2071  40.5705  40.8555
    41.3923  42.1918  42.8230  44.0341

          k = 0.5833-0.2500 0.5833 (  1602 PWs)   bands (ev):

   -11.6456 -10.8197  -5.9518  -4.0449  -2.9296   0.1063   1.2958   3.0663
     4.6021   4.9205   6.5529  10.5454  11.0924  12.6936  13.3021  16.3876
    16.7178  17.3185  18.7946  19.1323  19.8760  19.9647  21.7835  22.0905
    22.6155  23.6433  27.3064  27.4291  27.9321  28.3555  30.4946  32.1441
    32.9637  33.3699  34.2085  35.4634  35.6338  38.2404  40.9790  41.8527
    42.1352  42.9027  44.4116  44.5300

          k = 0.5000-0.1667 0.5000 (  1610 PWs)   bands (ev):

   -12.7144  -9.4182  -6.1869  -3.4939  -2.3739  -0.1130   1.1100   3.0867
     3.2146   4.7714   7.1013   9.6640  10.9166  12.6955  13.2914  14.4552
    16.0937  17.4035  19.0040  19.5270  19.7248  21.3649  22.5986  22.9784
    24.0183  25.5167  26.6211  27.4996  28.6088  29.4479  31.0579  31.6521
    32.7020  32.9627  34.0522  35.7733  36.1910  37.1678  38.5893  40.4913
    41.7434  42.7651  43.7820  45.1446

          k = 0.4167-0.0833 0.4167 (  1613 PWs)   bands (ev):

   -13.5796  -7.8246  -6.2206  -2.7628  -1.6323  -0.1235   1.0565   1.4616
     2.3904   4.7813   7.5590   9.0429   9.4308  10.4535  13.6831  15.0402
    15.2537  16.1694  18.4086  19.7550  22.7216  23.0143  24.3487  24.7047
    25.6335  25.9690  26.9864  29.4149  29.6450  30.6582  31.2203  31.4271
    32.2926  32.8869  33.8506  34.9274  35.1366  37.2604  37.7052  38.0056
    41.1533  41.2293  43.3283  43.4442

          k = 0.3333 0.0000 0.3333 (  1604 PWs)   bands (ev):

   -14.2388  -6.0583  -6.0477  -1.9035  -0.7265  -0.0211   0.1975   1.0251
     1.2547   5.1335   5.7736   7.3807   7.9492  11.4556  11.8588  13.2943
    17.0858  17.6199  18.3093  20.0022  24.0216  24.8949  26.2025  26.2978
    26.5092  26.7764  29.5144  30.0176  30.4093  30.6340  30.8319  32.4686
    32.5629  33.3055  33.3201  33.3591  35.4770  35.8466  37.6653  37.9157
    39.8423  39.8937  41.1618  43.2052

          k = 0.0000 0.5000 0.0000 (  1612 PWs)   bands (ev):

   -14.0999  -4.7934  -4.7934  -4.3365  -3.6563  -3.6518   4.1342   4.1342
     4.8290   5.9551   6.1023   6.1023   6.3214   8.4704  14.4076  14.4076
    14.8790  15.6855  17.6265  22.3805  23.4762  24.5951  24.5951  25.3902
    25.3902  25.5945  28.6213  30.3712  32.3678  33.1561  33.1561  33.2254
    33.5865  33.5865  34.9591  35.5113  35.7352  35.7352  36.1171  36.4968
    36.4968  37.5324  39.2877  43.2098

          k =-0.0833 0.5833-0.0833 (  1617 PWs)   bands (ev):

   -13.5795  -6.2473  -5.3984  -5.0942  -3.9641  -2.8261   3.7349   4.4124
     5.4600   5.9868   7.4778   7.6582   8.7611   9.5665  11.9389  12.7806
    15.1298  17.2552  17.6562  21.0349  21.7074  22.7817  23.0643  24.4670
    25.8022  26.1646  28.4866  29.6816  30.6607  31.9386  31.9466  32.9150
    32.9503  34.1972  34.2502  35.5275  36.3621  36.6673  37.3420  37.4395
    38.2124  38.7976  40.5101  42.1193

          k =-0.1667 0.6667-0.1667 (  1620 PWs)   bands (ev):

   -12.8524  -7.9314  -6.3021  -5.1955  -4.0653  -1.3802   2.9071   4.0571
     5.1776   7.5322   8.8114   9.3860   9.9188  10.8371  11.2237  11.8607
    15.7638  17.3291  18.2701  19.5924  20.0579  21.1508  21.8333  23.9043
    25.9191  26.3843  26.5054  27.5566  28.9797  30.6740  31.5723  32.2149
    32.2849  33.5849  34.8194  36.7307  37.6090  37.7069  38.7520  39.6028
    40.2139  40.4221  41.3582  42.0610

          k = 0.7500-0.2500 0.7500 (  1617 PWs)   bands (ev):

   -11.9205  -9.4538  -7.0102  -5.0970  -3.9653   0.2484   2.2269   3.5834
     5.1687   7.0381   8.3329   9.3825  10.9546  12.3117  13.1684  14.7773
    15.3559  16.5018  17.1252  19.0726  19.8061  20.3379  21.7667  22.4577
    24.4176  24.6210  25.5486  27.2326  27.7412  29.4605  30.5125  31.6660
    32.9545  34.4378  35.4900  37.2333  38.5800  38.6478  38.9677  40.4705
    40.5261  41.0428  42.7844  43.6713

          k = 0.6667-0.1667 0.6667 (  1607 PWs)   bands (ev):

   -10.8044 -10.7678  -7.5181  -4.7995  -3.6656   1.7352   1.8398   3.3950
     4.9543   5.1197   6.8428  11.2719  11.9011  12.6322  14.9846  15.1964
    16.0542  17.0007  17.9187  18.0649  19.0649  19.9491  20.3517  21.5903
    22.4331  24.7180  25.2887  27.8320  27.9073  28.6315  30.1101  31.2098
    32.5648  34.6907  35.9650  36.3590  38.4955  38.8944  40.7684  40.9737
    42.2185  42.8867  43.0925  44.5455

          k = 0.5833-0.0833 0.5833 (  1611 PWs)   bands (ev):

   -11.9208  -9.4520  -7.8236  -4.3049  -3.1696   1.4412   2.4066   3.0492
     3.7648   4.9582   6.4912   9.4798  13.1369  13.3267  14.5645  15.1166
    16.6443  17.5899  17.6366  18.7889  19.3438  19.9321  20.0592  20.7762
    22.7487  25.5532  26.1529  27.2521  28.6214  29.4383  30.5216  30.9543
    32.3868  33.4936  35.4011  35.8861  39.0029  39.1402  39.1403  41.3488
    42.7964  43.0553  43.5614  44.2441

          k = 0.5000 0.0000 0.5000 (  1604 PWs)   bands (ev):

   -12.8526  -7.9283  -7.9233  -3.6185  -2.4849   1.3266   1.3712   2.2477
     2.6228   6.3727   7.1010   7.4586  11.6168  11.9946  15.0668  15.9046
    16.0439  16.4552  17.3745  18.3187  20.9628  21.3486  21.4586  22.4652
    25.4225  26.1480  26.4972  26.5595  30.4072  30.4979  30.9647  31.1126
    32.2768  33.1538  34.0695  35.3076  35.5523  39.1711  39.4167  39.8584
    40.8739  41.4184  44.7772  44.9736

          k = 0.0000 0.6667 0.0000 (  1624 PWs)   bands (ev):

   -13.1291  -6.5678  -5.4612  -5.4612  -4.3399  -4.3159   5.5897   5.5897
     5.8097   7.8620   8.0848   8.0848   8.5673   9.8858  12.2259  12.2259
    12.5166  15.8007  19.5616  20.8126  20.8341  20.8341  21.9807  23.4064
    26.1911  26.1911  28.4227  29.2544  31.7946  31.7946  32.3465  32.6084
    34.3947  34.6868  34.9849  34.9849  35.1766  35.1766  35.7918  37.4996
    37.4996  39.7329  39.8938  41.4642

          k =-0.0833 0.7500-0.0833 (  1618 PWs)   bands (ev):

   -12.4722  -7.5458  -6.7835  -5.6286  -4.4940  -3.3494   4.8627   5.6973
     7.7453   7.7534   9.3547   9.4385  10.0267  10.5336  10.9824  11.4471
    12.9780  15.5305  17.9532  19.0989  19.8022  21.1310  21.5360  22.7994
    26.6363  26.7489  27.0358  30.1620  30.1879  30.9294  30.9347  31.8318
    32.2388  33.1847  35.4768  35.5402  36.0671  36.9381  37.2294  38.5345
    38.7148  39.0806  42.5412  42.8478

          k = 0.8333-0.1667 0.8333 (  1619 PWs)   bands (ev):

   -11.6102  -8.3382  -8.3262  -5.5959  -4.4597  -1.7623   4.1297   5.2675
     7.3468   7.4326   8.9173   9.8663  11.5839  11.6244  12.1761  13.7333
    14.0162  14.8054  16.6613  17.6245  18.4457  20.8269  21.1249  23.6068
    24.2259  27.0364  27.1939  27.5544  28.2892  30.1036  30.8403  31.2602
    32.0015  32.7709  35.5553  36.6370  37.0943  38.1547  39.1918  40.2585
    40.3029  40.8878  42.9068  43.8170

          k = 0.7500-0.0833 0.7500 (  1620 PWs)   bands (ev):

   -10.5455  -9.7269  -8.9053  -5.3633  -4.2251   0.0175   3.5742   4.8316
     5.1864   6.1656   8.5093  11.4567  11.8995  13.3207  13.8715  14.4244
    14.5545  16.4754  16.6014  17.2917  17.9229  19.4924  20.3832  21.8613
    24.1545  24.7709  26.3511  28.2199  28.2450  29.3148  30.1317  30.7353
    31.3353  32.4773  36.9623  37.8164  39.0477  39.6192  40.2043  40.6329
    42.5872  42.6475  43.1208  44.2350

          k = 0.6667 0.0000 0.6667 (  1612 PWs)   bands (ev):

   -10.9240  -9.2820  -9.2798  -4.9319  -3.7928   1.8539   3.2116   3.2131
     4.4739   4.6168   8.4094   9.3333  13.5502  14.6639  14.8353  15.0968
    16.4950  16.6557  16.7754  16.8799  18.2839  18.9048  21.4378  21.4687
    21.6419  23.3096  26.6972  28.0079  29.1505  29.4683  29.9509  30.5593
    31.1600  32.0584  37.1752  38.3130  40.0629  40.6041  41.1233  41.1836
    41.4555  42.6778  43.6025  43.7874

          k = 0.0000 0.8333 0.0000 (  1628 PWs)   bands (ev):

   -11.8855  -8.5968  -5.8624  -5.8624  -4.7334  -4.7202   6.9401   6.9401
     7.0699   9.4657   9.9365   9.9365  10.4250  10.5022  11.0324  11.0324
    11.9202  14.5493  17.2737  17.2737  17.9556  18.8353  23.3978  24.7693
    27.0694  27.2507  27.2507  29.6387  30.1613  30.1613  32.1197  32.2143
    32.7975  33.3437  34.6285  34.6285  34.7908  34.7908  35.1072  36.4618
    41.0201  41.0201  43.9637  44.5606

          k = 0.9167-0.0833 0.9167 (  1622 PWs)   bands (ev):

   -11.0939  -9.4492  -7.0532  -5.8960  -4.7597  -3.6126   6.2287   7.0425
     7.8417   8.5012   9.3154  10.4215  10.9558  11.3949  11.8901  12.4180
    13.6621  14.4619  15.5015  15.7222  17.0989  18.1376  23.6824  25.1947
    25.8718  27.8875  27.9494  28.9565  29.4487  29.9655  30.4891  31.5064
    31.6898  32.4741  34.1080  34.3840  35.3709  36.4419  36.7687  37.7942
    42.0998  42.1905  45.4674  45.5950

          k = 0.8333 0.0000 0.8333 (  1614 PWs)   bands (ev):

   -10.0996 -10.0992  -8.4740  -5.7295  -4.5918  -1.8907   5.5982   5.6297
     6.5655   6.7283  10.7638  11.1395  11.5465  11.9370  12.8371  13.6778
    13.9039  14.8732  15.1807  16.4077  17.4550  18.6032  22.0414  22.5163
    26.9641  26.9727  27.0648  28.3763  28.4192  29.2307  30.2740  30.4523
    31.3448  31.8351  35.3445  36.1390  36.6691  37.9772  39.9008  40.8366
    41.8954  42.1994  44.0363  44.9635

          k = 0.0000-1.0000 0.0000 (  1604 PWs)   bands (ev):

   -10.3729 -10.3729  -5.9962  -5.9962  -4.8602  -4.8602   8.3387   8.3387
     8.5233   8.5233   8.6087   8.6087  10.6684  10.6684  13.2888  13.2888
    14.0820  14.0820  14.5110  14.5110  16.5653  16.5653  25.5226  25.5226
    27.9796  27.9796  28.2485  28.2485  28.9603  28.9603  32.0551  32.0551
    32.0662  32.0662  34.4979  34.4979  34.6506  34.6506  35.2421  35.2421
    43.2561  43.2561  46.4989  46.4989

          k =-0.1667 0.3333 0.0000 (  1603 PWs)   bands (ev):

   -14.6559  -4.8907  -4.8765  -1.9890  -1.5233  -1.3101   1.4988   1.6495
     1.9900   4.6353   4.7962   5.6645   6.4812   8.8191  12.3477  14.5033
    16.9548  18.5078  19.9336  20.7089  22.7821  26.3391  26.6496  27.1409
    27.6743  28.9828  29.4876  29.9716  30.1532  30.9252  31.6008  31.6282
    33.5153  34.1501  34.2776  35.0640  35.3114  36.4807  37.1877  38.6457
    39.1076  39.8140  39.8960  41.3332

          k =-0.2500 0.4167-0.0833 (  1607 PWs)   bands (ev):

   -14.1346  -6.7518  -5.1835  -2.8384  -1.8186  -0.3571   0.7294   1.5874
     2.8621   4.2978   6.3449   7.7077   8.4585  10.7629  11.9176  14.2519
    15.0178  18.0113  18.5878  20.9776  22.3225  24.5199  25.7629  26.3999
    27.1628  28.2716  28.3679  28.7465  29.5322  30.3295  31.0611  31.6482
    32.8090  33.1449  34.3648  34.9154  36.2653  36.4611  37.1149  38.4357
    39.0001  40.4545  40.9076  41.8542

          k =-0.3333 0.5000-0.1667 (  1604 PWs)   bands (ev):

   -13.4063  -8.4672  -5.2846  -3.6970  -1.9652  -0.2813   1.2274   1.5490
     3.0818   4.8264   7.9075   9.4853   9.8452  11.3027  12.7048  13.0266
    15.9516  16.4446  18.9822  20.5948  21.5531  23.0165  24.1048  24.4342
    25.5029  26.2750  27.3481  28.0853  28.3794  29.7214  30.6382  31.8043
    32.2966  33.1941  34.9112  35.5608  36.3466  37.4589  37.8577  38.8555
    39.5917  41.6606  42.4284  43.4219

          k = 0.5833-0.4167 0.7500 (  1612 PWs)   bands (ev):

   -12.4726  -9.9985  -5.1867  -4.3837  -1.9378  -0.8603   1.6189   2.1791
     3.2739   6.1710   7.3881   9.4070  10.6879  12.2099  13.7199  14.6983
    15.3562  17.8605  18.5733  19.6069  20.8773  21.6521  22.3401  22.7396
    24.1125  25.1550  25.4559  27.0016  28.5980  29.9105  30.6880  31.8287
    32.2447  32.6954  33.9955  35.1388  37.3540  38.4481  38.9482  39.5993
    42.2257  43.0838  43.2521  44.1020

          k = 0.5000-0.3333 0.6667 (  1602 PWs)   bands (ev):

   -11.3562 -11.3147  -4.9364  -4.8314  -1.8687  -1.1214   1.7900   1.9997
     4.6655   5.2657   8.1798   8.4782  10.9468  12.6113  14.3828  15.1700
    17.4368  17.7738  18.2344  18.4240  20.4491  20.8668  21.8075  22.2522
    22.9953  24.6321  25.8966  25.9266  29.0023  29.6743  31.2155  31.4299
    31.9037  33.1791  33.5437  34.6278  37.4038  38.2347  40.1942  40.6718
    42.6748  43.6026  44.4223  44.6027

          k =-0.1667 0.5000 0.0000 (  1617 PWs)   bands (ev):

   -13.9610  -5.8175  -5.8076  -4.1784  -2.4250  -2.3904   2.2826   3.6616
     4.0587   5.6367   5.9562   7.6398   8.1384   9.7186  12.0371  14.5310
    15.8189  16.1343  18.9490  20.5763  21.9965  23.7135  24.3487  26.0891
    26.5099  27.3365  28.5077  29.6695  30.3607  30.7415  31.5257  32.3277
    33.3027  33.9508  34.0042  35.0533  36.3092  36.8256  37.0333  38.5621
    38.9423  40.2801  40.4563  40.8048

          k =-0.2500 0.5833-0.0833 (  1611 PWs)   bands (ev):

   -13.3024  -7.5595  -5.9805  -5.1360  -2.5791  -1.0471   1.4526   3.7900
     4.6008   5.7520   7.8228   9.2801   9.6312  10.6899  11.6686  12.7940
    16.1626  17.8663  18.7581  19.2655  20.3273  21.6700  23.4943  24.8959
    25.2997  26.8068  27.3179  28.4950  29.0542  29.8965  31.1389  31.6598
    32.9098  33.9969  35.3284  35.5039  36.7493  37.4274  38.9499  39.5292
    40.0243  40.6007  41.0718  41.8902

          k = 0.6667-0.3333 0.8333 (  1617 PWs)   bands (ev):

   -12.4380  -9.1470  -5.9639  -5.8888  -2.5548   0.2729   0.9912   3.7891
     4.2240   6.7151   7.6697   9.7219  10.6326  11.3703  13.6073  13.9891
    16.4611  16.7089  17.5578  19.9725  20.0953  20.6506  22.5604  23.2199
    23.5549  24.7766  26.2298  27.0374  27.6195  29.5886  30.5268  32.4214
    33.2175  34.5596  35.7662  36.4719  37.0220  37.6252  39.4663  40.0848
    40.5172  41.5399  42.2167  43.1621

          k = 0.5833-0.2500 0.7500 (  1607 PWs)   bands (ev):

   -11.3702 -10.5459  -6.4807  -5.7094  -2.3395   0.0748   2.2681   3.7122
     4.0375   5.1530   8.3490   9.0706  12.0714  13.1124  14.0496  14.9493
    16.4543  16.9979  17.8319  18.6259  19.8345  20.7096  21.1250  22.2886
    22.6468  24.1906  25.1434  25.9419  27.2429  29.8461  30.1488  32.2770
    33.5374  35.3923  35.4720  35.8812  37.4377  38.4843  39.0899  39.8908
    41.7467  43.2004  44.0964  44.8146

          k = 0.5000-0.1667 0.6667 (  1605 PWs)   bands (ev):

   -11.7486 -10.1008  -6.8515  -5.2750  -1.9448  -0.2343   2.6629   3.0640
     4.6279   4.7271   6.7354  10.7447  11.2184  12.8285  14.4613  15.7804
    15.9863  17.4183  17.7871  18.8275  19.8000  20.5166  20.9525  21.4297
    23.0202  24.4117  25.9662  26.1807  27.4768  29.7679  29.8867  32.5247
    33.4675  34.9508  35.3220  35.7401  36.5966  38.6509  39.4890  40.5752
    41.9157  42.9467  43.3159  44.9899

          k = 0.4167-0.0833 0.5833 (  1610 PWs)   bands (ev):

   -12.7489  -8.6368  -7.0206  -4.6425  -1.4113  -0.3352   1.1400   2.8716
     4.1839   5.6376   7.1054   8.6256  11.1380  12.6222  13.2290  15.0775
    16.2462  16.8730  18.3865  18.8133  20.1850  20.8724  22.2269  23.7469
    23.7932  24.9637  27.0361  27.6943  28.4520  29.4728  30.2193  32.5153
    33.1460  34.2962  34.4495  35.5495  36.8933  37.1628  39.2024  40.2849
    40.9613  41.7754  42.9661  43.2833

          k = 0.3333 0.0000 0.5000 (  1606 PWs)   bands (ev):

   -13.5449  -6.9908  -6.9836  -3.8185  -0.9432  -0.4789   0.1205   2.7490
     2.9950   5.8596   6.6742   9.1896   9.7144   9.9241  12.8013  14.8967
    16.2268  16.5850  18.0481  19.7355  21.4617  22.6295  23.6634  24.8349
    25.6864  27.8383  27.9114  28.1414  28.9851  30.3261  30.7529  32.2817
    32.6888  33.3737  34.0066  34.4801  36.1562  37.1958  38.3432  39.1432
    39.4678  41.6302  42.4741  42.4828

          k =-0.1667 0.6667-0.0000 (  1626 PWs)   bands (ev):

   -12.9907  -6.4995  -6.4787  -6.4178  -3.0708  -3.0413   3.2399   5.4958
     6.4942   7.0681   7.1450   9.7165  10.0629  10.3075  10.7524  12.3599
    13.9697  16.9970  19.4107  19.6494  19.9858  21.4872  22.3084  23.0889
    24.8418  26.9856  28.1284  29.7065  29.8423  30.4479  30.4625  32.1308
    32.9782  33.9868  35.8516  36.0808  36.6119  37.1557  37.6786  38.1250
    39.4208  40.0725  41.2398  41.4721

          k = 0.7500-0.2500 0.9167 (  1621 PWs)   bands (ev):

   -12.1962  -8.1007  -7.2777  -6.5142  -3.0908  -1.5427   2.4997   5.5754
     6.4542   7.3052   8.2989   9.2223  10.5029  11.8274  12.6609  13.0413
    14.2827  16.2456  17.7644  18.3260  20.0664  21.2852  21.9584  22.4785
    24.5796  24.6304  26.5714  28.2018  28.7427  29.5645  30.1371  32.5930
    33.2667  34.3046  35.5115  36.5165  37.6758  38.1424  38.7723  39.5887
    40.1565  41.1882  41.9763  42.4670

          k = 0.6667-0.1667 0.8333 (  1616 PWs)   bands (ev):

   -11.1977  -9.5561  -7.9218  -6.3461  -2.9291   0.1376   1.9406   4.9560
     5.2403   6.7315   8.6318   9.8612  11.6291  12.8584  13.7675  14.7908
    14.9780  16.4214  17.0276  17.6329  19.3957  19.9219  21.1336  22.9689
    23.2074  24.2479  25.4518  26.3930  27.2006  28.9293  30.2841  32.7939
    34.0392  34.4737  35.8289  36.3584  38.2980  39.1015  40.0632  40.2627
    41.8907  42.4755  42.6843  43.4096

          k = 0.5833-0.0833 0.7500 (  1614 PWs)   bands (ev):

   -10.8211  -9.9977  -8.3638  -5.9765  -2.5744   1.2542   2.1632   3.1505
     4.8982   6.1199   7.6311  10.5082  11.7114  14.0626  14.8539  15.2867
    16.1123  16.1934  17.4444  17.9607  19.1002  19.8337  20.2897  20.8761
    23.1002  23.9630  25.0360  26.6272  27.2038  28.8163  30.2969  32.5689
    33.2407  34.2174  36.1016  37.2727  38.7814  39.3820  41.1644  41.4154
    41.5423  42.9239  43.4908  43.9502

          k = 0.5000 0.0000 0.6667 (  1621 PWs)   bands (ev):

   -11.8863  -8.6039  -8.6008  -5.4073  -2.0389   1.0635   1.2556   3.7481
     4.6115   5.2140   7.5445   8.4223  13.2166  13.6138  14.3176  15.2938
    16.4367  16.8719  16.9642  18.6190  19.2228  20.2555  20.4726  21.8852
    23.4484  24.4442  24.5389  27.1767  28.3333  29.1726  30.6477  31.6077
    33.6603  34.3344  34.9474  36.6878  38.6290  39.0700  40.4620  40.5738
    41.5484  41.9637  43.3448  43.4452

          k = 0.8333-0.1667 1.0000 (  1617 PWs)   bands (ev):

   -11.7478  -8.4615  -6.8858  -6.8835  -3.4557  -3.4408   4.4495   6.9721
     7.5685   8.3228   9.0761   9.6685  10.3790  11.6084  11.8054  12.6498
    13.0429  15.1433  16.5619  16.6749  19.2327  19.7742  22.4368  23.9423
    25.2441  25.7513  28.4975  29.2066  29.2073  29.5412  30.6417  31.8322
    32.6115  32.7697  35.1560  35.6614  35.8967  36.2323  38.8961  38.9141
    39.7087  41.0183  43.9081  44.6070

          k = 0.7500-0.0833 0.9167 (  1620 PWs)   bands (ev):

   -10.8195  -9.1771  -8.3720  -6.7834  -3.3500  -1.7960   3.8204   5.3786
     7.0034   8.3875   9.6724  10.2448  11.0292  12.1204  12.8904  13.6146
    14.2810  15.2688  15.6612  17.0978  18.1689  19.5784  21.4009  22.8774
    25.1654  25.9162  26.1979  27.6770  27.9911  29.3139  30.2878  32.0281
    32.6512  33.6048  35.0380  35.5353  36.8680  38.9779  40.1487  40.4504
    41.5664  41.9531  43.8497  44.2228

          k = 0.6667 0.0000 0.8333 (  1620 PWs)   bands (ev):

    -9.7075  -9.6903  -9.6747  -6.4803  -3.0561   0.0362   3.3365   3.3737
     6.5325   6.6884   9.6353  10.3273  11.8880  12.8778  13.5956  14.0008
    15.2301  16.4377  17.3865  17.3957  18.9676  18.9960  20.5967  20.8473
    23.0166  25.5681  25.9303  26.9347  27.1463  29.0401  29.9116  31.8504
    33.1401  33.5330  35.9370  37.1177  38.9464  40.3272  40.7350  41.7489
    41.8062  43.1745  43.6890  44.0490

          k =-0.1667-1.0000 0.0000 (  1622 PWs)   bands (ev):

   -10.2361 -10.2361  -7.0194  -7.0194  -3.5797  -3.5797   5.9054   5.9054
     8.5251   8.5251   9.7148   9.7148  11.8364  11.8364  12.3805  12.3805
    14.2157  14.2157  15.6025  15.6025  17.3504  17.3504  23.8352  23.8352
    26.6996  26.6996  27.9974  27.9974  29.4395  29.4395  30.6825  30.6825
    32.3974  32.3974  34.5141  34.5141  35.8605  35.8605  38.7953  38.7953
    42.4663  42.4663  45.4591  45.4591

          k = 0.6667-0.3333 1.0000 (  1610 PWs)   bands (ev):

   -12.5760  -7.6630  -7.6584  -6.0390  -1.2426  -1.0981   0.7160   4.8975
     5.4356   6.6809   7.5511   7.6982  11.7384  12.1945  12.6919  13.8347
    14.6824  17.8565  18.7863  18.9807  19.5943  20.1281  22.4562  23.7039
    24.1569  25.1450  25.7233  26.5891  28.5495  30.5625  30.8556  32.3670
    32.4183  34.9634  35.8878  36.8332  37.6805  38.2789  39.0792  39.0928
    40.4522  40.4805  41.1626  43.6111

          k = 0.5833-0.2500 0.9167 (  1611 PWs)   bands (ev):

   -11.6451  -9.1808  -7.5587  -6.7461  -1.1603  -0.1728   0.7924   4.4294
     5.6499   6.1765   7.5986   9.7267  11.0389  13.4241  14.5170  15.0956
    15.3961  16.2466  17.5268  17.5747  20.1431  21.0940  22.0908  22.3816
    22.8883  23.3430  24.9169  25.0790  27.1742  28.8568  31.4819  33.5128
    33.8652  35.6477  35.9999  37.0141  37.2957  38.5206  39.2889  40.1180
    40.6765  42.0680  43.1548  43.2924

          k = 0.5000-0.1667 0.8333 (  1610 PWs)   bands (ev):

   -10.5287 -10.4950  -7.2673  -7.2396  -1.1049  -0.2969   2.1418   2.9485
     5.6044   6.1281   8.9883   9.2774  12.0264  12.6045  14.9029  15.1714
    15.9787  16.1909  18.1711  18.7811  19.1271  19.5340  20.7085  22.0385
    23.2712  23.7634  24.7079  25.3910  25.4835  27.9797  31.7623  34.4630
    34.8679  35.1670  35.8137  36.3902  37.3418  38.3743  39.5144  41.1691
    41.6981  43.2187  43.3434  44.1153

          k = 0.6667-0.1667 1.0000 (  1618 PWs)   bands (ev):

   -11.3351  -8.0696  -8.0654  -8.0546  -1.5459  -1.4936   1.8363   4.8930
     7.1487   8.1186   8.8933   8.9117  10.7305  12.2286  14.1014  14.4255
    14.9498  15.1361  16.0917  18.4492  19.9283  20.9507  21.2274  22.7090
    23.4705  23.8829  25.1465  25.6150  27.0054  30.5049  31.0632  32.8889
    33.0120  35.0985  35.9965  37.6979  37.7889  38.2839  38.8321  40.2620
    40.5691  42.1223  43.1226  43.7472

          k = 0.5833-0.0833 0.9167 (  1615 PWs)   bands (ev):

   -10.2719  -9.4534  -8.6349  -7.8287  -1.3161   0.1484   1.4133   2.8729
     7.3494   8.2922   9.4434   9.8994  11.0676  11.8465  12.9792  13.7689
    16.2563  17.3111  18.2310  18.3529  19.6376  19.7835  20.3670  21.5560
    21.7646  23.7938  24.0832  25.1886  27.0155  28.7153  31.3161  33.1886
    34.1589  35.4269  36.4589  37.2464  38.5582  39.4250  39.9077  40.8558
    41.4881  42.3461  43.7953  44.3162

          k = 0.5000 0.0000 0.8333 (  1612 PWs)   bands (ev):

   -10.6492  -9.0108  -9.0091  -7.3881  -0.9671   0.6103   1.0125   2.5767
     6.9371   7.2814   8.9147   9.5321  11.2760  12.8905  13.6759  14.3631
    16.8042  16.8459  17.5094  19.0514  19.5531  19.6298  20.7726  21.7327
    22.0164  23.1771  24.2846  24.6844  26.3024  29.7121  30.4438  33.4354
    35.0209  35.7246  36.3593  36.6037  38.4314  39.7780  39.9100  40.9571
    41.5323  42.0238  43.4309  43.8167

          k =-0.3333-1.0000 0.0000 (  1618 PWs)   bands (ev):

    -9.8264  -9.8264  -8.2020  -8.2020  -1.6416  -1.6416   3.2609   3.2609
     8.7691   8.7691  10.0762  10.0762  11.1128  11.1128  12.4226  12.4226
    15.9838  15.9838  17.8757  17.8757  18.7478  18.7478  21.2650  21.2650
    24.3486  24.3486  25.2094  25.2094  28.7887  28.7887  31.4577  31.4577
    33.8018  33.8018  36.8097  36.8097  37.9182  37.9182  40.5214  40.5214
    43.0721  43.0721  44.0382  44.0382

          k =-0.5000-1.0000 0.0000 (  1628 PWs)   bands (ev):

    -9.1562  -9.1562  -9.1362  -9.1362   0.0833   0.0833   1.2966   1.2966
     8.9384   8.9384  10.4566  10.4566  10.4637  10.4637  12.1695  12.1695
    18.4295  18.4295  18.8591  18.8591  19.5854  19.5854  20.7402  20.7402
    21.1423  21.1423  23.9272  23.9272  28.8634  28.8634  31.1589  31.1589
    35.8297  35.8297  37.4886  37.4886  39.4680  39.4680  40.5252  40.5252
    41.5871  41.5871  42.4126  42.4126

     the Fermi energy is    46.4954 ev

     Writing output data file Si.save

     init_run     :      0.16s CPU      0.17s WALL (       1 calls)
     electrons    :    179.91s CPU    182.35s WALL (       1 calls)

     Called by init_run:
     wfcinit      :      0.00s CPU      0.00s WALL (       1 calls)
     potinit      :      0.04s CPU      0.04s WALL (       1 calls)

     Called by electrons:
     c_bands      :    179.69s CPU    182.12s WALL (       1 calls)
     v_of_rho     :      0.03s CPU      0.03s WALL (       1 calls)

     Called by c_bands:
     init_us_2    :      0.08s CPU      0.10s WALL (      72 calls)
     cegterg      :    170.81s CPU    173.07s WALL (     139 calls)

     Called by *egterg:
     h_psi        :    100.61s CPU    101.88s WALL (    2144 calls)
     g_psi        :      0.28s CPU      0.28s WALL (    1933 calls)
     cdiaghg      :     18.04s CPU     18.19s WALL (    2005 calls)

     Called by h_psi:
     add_vuspsi   :      2.74s CPU      2.80s WALL (    2144 calls)

     General routines
     calbec       :      3.05s CPU      3.08s WALL (    2144 calls)
     fft          :      0.02s CPU      0.02s WALL (      10 calls)
     fftw         :     90.17s CPU     91.29s WALL (   90330 calls)
     davcio       :      0.10s CPU      0.27s WALL (      72 calls)

     Parallel routines
     fft_scatter  :      2.19s CPU      2.19s WALL (   90340 calls)

     PWSCF        :  3m 2.23s CPU     3m 4.94s WALL


   This run was terminated on:  23: 1:17  13Feb2023            

=------------------------------------------------------------------------------=
   JOB DONE.
=------------------------------------------------------------------------------=
