
     Program PWSCF v.5.1 starts on 13Feb2023 at 22:56:29 

     This program is part of the open-source Quantum ESPRESSO suite
     for quantum simulation of materials; please cite
         "P. Giannozzi et al., J. Phys.:Condens. Matter 21 395502 (2009);
          URL http://www.quantum-espresso.org", 
     in publications or presentations arising from this work. More details at
     http://www.quantum-espresso.org/quote

     Parallel version (MPI), running on     1 processors
     Waiting for input...
     Reading input from standard input

     Current dimensions of program PWSCF are:
     Max number of different atomic species (ntypx) = 10
     Max number of k-points (npk) =  40000
     Max angular momentum in pseudopotentials (lmaxx) =  3
               file Si.pbe-mt_fhi.UPF: wavefunction(s)  4f renormalized

     Subspace diagonalization in iterative solution of the eigenvalue problem:
     a serial algorithm will be used


     G-vector sticks info
     --------------------
     sticks:   dense  smooth     PW     G-vecs:    dense   smooth      PW
     Sum         733     733    211                12939    12939    2109



     bravais-lattice index     =            2
     lattice parameter (alat)  =      10.2623  a.u.
     unit-cell volume          =     270.1967 (a.u.)^3
     number of atoms/cell      =            2
     number of atomic types    =            1
     number of electrons       =        88.00
     number of Kohn-Sham states=           44
     kinetic-energy cutoff     =      50.0000  Ry
     charge density cutoff     =     200.0000  Ry
     convergence threshold     =      1.6E-09
     mixing beta               =       0.3000
     number of iterations used =            8  plain     mixing
     Exchange-correlation      = PBE ( 1  4  3  4 0)

     celldm(1)=  10.262347  celldm(2)=   0.000000  celldm(3)=   0.000000
     celldm(4)=   0.000000  celldm(5)=   0.000000  celldm(6)=   0.000000

     crystal axes: (cart. coord. in units of alat)
               a(1) = (  -0.500000   0.000000   0.500000 )  
               a(2) = (   0.000000   0.500000   0.500000 )  
               a(3) = (  -0.500000   0.500000   0.000000 )  

     reciprocal axes: (cart. coord. in units 2 pi/alat)
               b(1) = ( -1.000000 -1.000000  1.000000 )  
               b(2) = (  1.000000  1.000000  1.000000 )  
               b(3) = ( -1.000000  1.000000 -1.000000 )  


     PseudoPot. # 1 for Si read from file:
     /home/acedemo/psudo/Si.pbe-mt_fhi.UPF
     MD5 check sum: 259057c2adf9952f9ced37ae3d9e311d
     Pseudo is Norm-conserving, Zval =  4.0
     Generated using FHI98PP, converted with fhi2upf.x v.5.0.2
     Using radial grid of  495 points,  3 beta functions with: 
                l(1) =   0
                l(2) =   1
                l(3) =   3

     atomic species   valence    mass     pseudopotential
        Si             4.00    28.08550     Si( 1.00)

     48 Sym. Ops., with inversion, found (24 have fractional translation)



   Cartesian axes

     site n.     atom                  positions (alat units)
         1           Si  tau(   1) = (   0.0000000   0.0000000   0.0000000  )
         2           Si  tau(   2) = (   0.2500000   0.2500000   0.2500000  )

     number of k points=    10  Marzari-Vanderbilt smearing, width (Ry)=  0.0500
                       cart. coord. in units 2pi/alat
        k(    1) = (   0.0000000   0.0000000   0.0000000), wk =   0.0160000
        k(    2) = (  -0.2000000   0.2000000  -0.2000000), wk =   0.1280000
        k(    3) = (  -0.4000000   0.4000000  -0.4000000), wk =   0.1280000
        k(    4) = (   0.0000000   0.4000000   0.0000000), wk =   0.0960000
        k(    5) = (  -0.2000000   0.6000000  -0.2000000), wk =   0.3840000
        k(    6) = (   0.6000000  -0.2000000   0.6000000), wk =   0.3840000
        k(    7) = (   0.4000000   0.0000000   0.4000000), wk =   0.1920000
        k(    8) = (   0.0000000   0.8000000   0.0000000), wk =   0.0960000
        k(    9) = (   0.8000000   0.0000000   0.8000000), wk =   0.1920000
        k(   10) = (   0.6000000  -0.2000000   1.0000000), wk =   0.3840000

     Dense  grid:    12939 G-vectors     FFT dimensions: (  36,  36,  36)

     Largest allocated arrays     est. size (Mb)     dimensions
        Kohn-Sham Wavefunctions         1.10 Mb     (    1639,   44)
        NL pseudopotentials             0.55 Mb     (    1639,   22)
        Each V/rho on FFT grid          0.71 Mb     (   46656)
        Each G-vector array             0.10 Mb     (   12939)
        G-vector shells                 0.00 Mb     (     180)
     Largest temporary arrays     est. size (Mb)     dimensions
        Auxiliary wavefunctions         4.40 Mb     (    1639,  176)
        Each subspace H/S matrix        0.47 Mb     (     176,  176)
        Each <psi_i|beta_j> matrix      0.01 Mb     (      22,   44)
        Arrays for rho mixing           5.70 Mb     (   46656,    8)

     Initial potential from superposition of free atoms

     starting charge    7.99859, renormalised to   88.00000
     Starting wfc are   32 randomized atomic wfcs +   12 random wfc

     total cpu time spent up to now is        1.9 secs

     per-process dynamical memory:    25.4 Mb

     Self-consistent Calculation

     iteration #  1     ecut=    50.00 Ry     beta=0.30
     Davidson diagonalization with overlap
     ethr =  1.00E-02,  avg # of iterations =  7.6

     total cpu time spent up to now is       12.5 secs

     total energy              =     229.62025552 Ry
     Harris-Foulkes estimate   =     -55.11275493 Ry
     estimated scf accuracy    <     604.48947061 Ry

     iteration #  2     ecut=    50.00 Ry     beta=0.30
     Davidson diagonalization with overlap
     ethr =  1.00E-02,  avg # of iterations =  4.0

     total cpu time spent up to now is       19.5 secs

     total energy              =     142.52442385 Ry
     Harris-Foulkes estimate   =     139.50526098 Ry
     estimated scf accuracy    <       6.15413426 Ry

     iteration #  3     ecut=    50.00 Ry     beta=0.30
     Davidson diagonalization with overlap
     ethr =  6.99E-03,  avg # of iterations =  3.6

     total cpu time spent up to now is       24.1 secs

     total energy              =     141.54533353 Ry
     Harris-Foulkes estimate   =     141.17500728 Ry
     estimated scf accuracy    <       1.09848273 Ry

     iteration #  4     ecut=    50.00 Ry     beta=0.30
     Davidson diagonalization with overlap
     ethr =  1.25E-03,  avg # of iterations =  3.4

     total cpu time spent up to now is       28.4 secs

     total energy              =     141.55011858 Ry
     Harris-Foulkes estimate   =     141.42896694 Ry
     estimated scf accuracy    <       0.20296570 Ry

     iteration #  5     ecut=    50.00 Ry     beta=0.30
     Davidson diagonalization with overlap
     ethr =  2.31E-04,  avg # of iterations =  3.2

     total cpu time spent up to now is       35.2 secs

     total energy              =     141.53050171 Ry
     Harris-Foulkes estimate   =     141.51555701 Ry
     estimated scf accuracy    <       0.03068759 Ry

     iteration #  6     ecut=    50.00 Ry     beta=0.30
     Davidson diagonalization with overlap
     ethr =  3.49E-05,  avg # of iterations =  3.5

     total cpu time spent up to now is       41.4 secs

     total energy              =     141.51240309 Ry
     Harris-Foulkes estimate   =     141.51219158 Ry
     estimated scf accuracy    <       0.00296748 Ry

     iteration #  7     ecut=    50.00 Ry     beta=0.30
     Davidson diagonalization with overlap
     ethr =  3.37E-06,  avg # of iterations =  1.1

     total cpu time spent up to now is       46.0 secs

     total energy              =     141.51327074 Ry
     Harris-Foulkes estimate   =     141.51238047 Ry
     estimated scf accuracy    <       0.00234690 Ry

     iteration #  8     ecut=    50.00 Ry     beta=0.30
     Davidson diagonalization with overlap
     ethr =  2.67E-06,  avg # of iterations =  2.6

     total cpu time spent up to now is       50.8 secs

     total energy              =     141.51299067 Ry
     Harris-Foulkes estimate   =     141.51297258 Ry
     estimated scf accuracy    <       0.00005948 Ry

     iteration #  9     ecut=    50.00 Ry     beta=0.30
     Davidson diagonalization with overlap
     ethr =  6.76E-08,  avg # of iterations =  3.3

     total cpu time spent up to now is       56.2 secs

     total energy              =     141.51298467 Ry
     Harris-Foulkes estimate   =     141.51298120 Ry
     estimated scf accuracy    <       0.00001002 Ry

     iteration # 10     ecut=    50.00 Ry     beta=0.30
     Davidson diagonalization with overlap
     ethr =  1.14E-08,  avg # of iterations =  3.0

     total cpu time spent up to now is       61.2 secs

     total energy              =     141.51298383 Ry
     Harris-Foulkes estimate   =     141.51298362 Ry
     estimated scf accuracy    <       0.00000057 Ry

     iteration # 11     ecut=    50.00 Ry     beta=0.30
     Davidson diagonalization with overlap
     ethr =  6.52E-10,  avg # of iterations =  3.4

     total cpu time spent up to now is       66.9 secs

     total energy              =     141.51298375 Ry
     Harris-Foulkes estimate   =     141.51298373 Ry
     estimated scf accuracy    <       0.00000004 Ry

     iteration # 12     ecut=    50.00 Ry     beta=0.30
     Davidson diagonalization with overlap
     ethr =  5.08E-11,  avg # of iterations =  2.6

     total cpu time spent up to now is       72.1 secs

     total energy              =     141.51298375 Ry
     Harris-Foulkes estimate   =     141.51298374 Ry
     estimated scf accuracy    <          2.7E-09 Ry

     iteration # 13     ecut=    50.00 Ry     beta=0.30
     Davidson diagonalization with overlap
     ethr =  3.03E-12,  avg # of iterations =  3.4

     total cpu time spent up to now is       76.3 secs

     End of self-consistent calculation

          k = 0.0000 0.0000 0.0000 (  1639 PWs)   bands (ev):

   -15.3523  -1.3265  -1.3265  -1.3265  -1.0997  -1.0997  -1.0997   1.3544
     1.5640   3.5675   3.5675   4.2758   4.2758   4.2758   8.5989  21.2187
    21.2187  21.2187  22.7020  22.7020  24.0182  24.0182  24.0182  24.5764
    24.5764  24.5764  30.3573  34.1055  34.1055  34.1055  35.2484  35.2484
    35.7124  35.7124  37.6231  37.6231  37.6231  39.4522  39.4522  39.4522
    39.5162  39.5162  39.5162  39.9047

          k =-0.2000 0.2000-0.2000 (  1606 PWs)   bands (ev):

   -14.7505  -5.8990  -2.5703  -2.5703  -0.7383   0.2890   0.2890   1.6337
     1.6392   1.6392   3.9211   6.4976   8.3914   8.3914  11.1478  15.9113
    15.9113  17.3036  22.4886  22.4886  24.5839  24.5839  25.1749  25.4602
    28.7931  28.7931  28.9586  30.9685  30.9685  31.7524  31.7524  32.6621
    32.9690  33.0211  33.0211  34.4834  36.1856  36.1856  37.3752  39.2073
    39.2668  39.2668  40.8252  41.2340

          k =-0.4000 0.4000-0.4000 (  1616 PWs)   bands (ev):

   -12.9523  -9.9805  -2.8661  -2.8661  -1.5281  -1.5281  -0.9072   0.1144
     5.0955   5.0955   7.0705   9.9775   9.9775  12.1526  13.8060  14.0070
    14.0070  15.9660  20.8525  20.8525  21.2801  22.9429  23.9245  23.9245
    26.1042  26.1042  26.9046  28.3533  28.3533  28.6794  28.6794  29.3461
    30.3115  31.9978  35.5897  35.5897  37.5943  38.2005  38.2005  39.3830
    41.0777  41.0777  42.4987  44.0489

          k = 0.0000 0.4000 0.0000 (  1607 PWs)   bands (ev):

   -14.5502  -4.2653  -4.2653  -3.3191  -3.1471  -2.6993   3.0803   3.0803
     4.3750   4.7845   5.0334   5.3365   5.3365   7.8310  13.5051  15.8381
    15.8381  16.4229  18.8143  21.9670  24.4724  24.9338  24.9338  26.9858
    26.9858  27.7928  29.2295  31.1277  31.1956  31.1956  31.5291  33.6856
    34.4157  34.4157  34.6281  35.0063  35.9958  36.2466  36.2466  37.2434
    37.2434  38.7655  39.0896  42.1957

          k =-0.2000 0.6000-0.2000 (  1619 PWs)   bands (ev):

   -13.1514  -8.2202  -5.3144  -4.8445  -3.7213  -0.4365   1.9778   3.1833
     3.7176   6.7397   8.1142   9.7397  10.1322  11.0089  11.4745  11.6934
    17.3717  17.6900  18.3983  18.5938  20.0230  22.7735  23.0157  24.6557
    26.0544  26.0766  26.7168  26.9803  28.5819  30.4720  31.3466  32.3848
    32.8445  33.0965  34.2575  35.9619  37.8796  37.8847  38.9209  39.8481
    40.4223  40.7069  41.3346  42.0270

          k = 0.6000-0.2000 0.6000 (  1596 PWs)   bands (ev):

   -11.5616 -10.5716  -6.6669  -4.2781  -3.1521   0.6652   1.7618   3.8471
     4.2569   4.5220   6.3067  11.2346  11.5091  12.4184  13.7354  16.3567
    16.6385  17.1501  18.3742  19.3688  19.5047  20.1404  21.0008  21.0601
    22.1305  24.4994  27.0009  27.5056  27.5248  28.5617  30.2031  31.8413
    33.2274  34.0743  34.6840  35.9480  36.9229  37.3672  41.0155  42.0852
    42.4238  42.9505  44.0496  44.2626

          k = 0.4000 0.0000 0.4000 (  1610 PWs)   bands (ev):

   -13.7502  -6.8661  -6.8582  -2.6128  -1.4765   0.4533   0.5618   1.4785
     1.7432   5.6265   6.4536   8.9452   9.4526   9.9104  13.2082  14.8345
    16.2603  16.9182  17.5163  19.3239  23.4528  23.7349  24.2387  25.0420
    25.6816  25.8430  28.3881  28.9192  30.6425  31.0500  31.6199  31.8583
    32.5129  32.9414  33.1150  33.2978  34.6686  37.3099  38.3096  38.6052
    40.1933  40.4190  42.5928  43.9846

          k = 0.0000 0.8000 0.0000 (  1624 PWs)   bands (ev):

   -12.1559  -8.2107  -5.8035  -5.8035  -4.6760  -4.6603   6.6629   6.6629
     6.7955   9.1724   9.8871   9.8871  10.1987  10.8214  10.8995  10.8995
    11.4716  14.7083  17.9618  17.9618  18.5025  19.4331  22.6936  24.4015
    27.0228  27.0228  27.3760  29.5591  30.4769  30.4769  32.1559  32.2744
    33.2070  33.6411  34.6854  34.6854  34.8520  34.8520  35.1625  36.9662
    40.3284  40.3284  43.0980  43.9017

          k = 0.8000 0.0000 0.8000 (  1622 PWs)   bands (ev):

    -9.9794  -9.9790  -9.0029  -5.6122  -4.4741  -1.1496   5.0800   5.1039
     6.1178   6.2564  10.2563  10.8690  12.0734  12.6277  13.4238  13.8435
    14.2509  15.0586  15.5865  16.6222  18.0309  19.0744  21.2342  21.6441
    25.8145  26.2383  26.9369  28.4705  28.4723  29.3337  30.0617  30.4340
    31.4000  31.4888  36.1550  37.2256  37.2259  38.6335  41.1227  41.3194
    41.8686  42.2399  43.4262  44.6420

          k = 0.6000-0.2000 1.0000 (  1616 PWs)   bands (ev):

   -11.3629  -8.4162  -8.4139  -7.4370  -0.7962  -0.5869   0.7263   4.2399
     6.7362   7.2093   8.4360   8.8897  11.2859  12.7409  14.6552  14.7682
    15.2933  15.5492  16.8902  18.7112  19.4268  21.6389  21.9597  22.0197
    23.2159  23.2424  24.0274  24.7005  26.6761  30.2561  30.8563  33.4061
    33.8237  35.6249  36.3725  37.6598  38.2142  38.8602  38.9485  39.7979
    40.5168  41.2368  43.3587  44.5639

     the Fermi energy is    45.0012 ev

!    total energy              =     141.51298375 Ry
     Harris-Foulkes estimate   =     141.51298375 Ry
     estimated scf accuracy    <          3.2E-11 Ry

     The total energy is the sum of the following terms:

     one-electron contribution =     255.21827530 Ry
     hartree contribution      =       3.87978080 Ry
     xc contribution           =    -100.79742205 Ry
     ewald contribution        =     -16.79708774 Ry
     smearing contrib. (-TS)   =       0.00943743 Ry

     convergence has been achieved in  13 iterations

     Forces acting on atoms (Ry/au):

     atom    1 type  1   force =    -0.00000000    0.00000000   -0.00000000
     atom    2 type  1   force =     0.00000000    0.00000000    0.00000000

     Total force =     0.000000     Total SCF correction =     0.000000


     entering subroutine stress ...

          total   stress  (Ry/bohr**3)                   (kbar)     P=77220.97
   0.52493759   0.00000000   0.00000000      77220.97      0.00      0.00
   0.00000000   0.52493759  -0.00000000          0.00  77220.97     -0.00
   0.00000000  -0.00000000   0.52493759          0.00     -0.00  77220.97


     Writing output data file Si.save

     init_run     :      1.74s CPU      1.83s WALL (       1 calls)
     electrons    :     71.78s CPU     74.41s WALL (       1 calls)
     forces       :      0.16s CPU      0.16s WALL (       1 calls)
     stress       :      0.69s CPU      0.70s WALL (       1 calls)

     Called by init_run:
     wfcinit      :      1.57s CPU      1.62s WALL (       1 calls)
     potinit      :      0.06s CPU      0.07s WALL (       1 calls)

     Called by electrons:
     c_bands      :     63.80s CPU     66.27s WALL (      13 calls)
     sum_band     :      7.42s CPU      7.55s WALL (      13 calls)
     v_of_rho     :      0.54s CPU      0.58s WALL (      14 calls)
     mix_rho      :      0.05s CPU      0.05s WALL (      13 calls)

     Called by c_bands:
     init_us_2    :      0.43s CPU      0.44s WALL (     290 calls)
     cegterg      :     63.44s CPU     65.88s WALL (     130 calls)

     Called by *egterg:
     h_psi        :     42.10s CPU     43.51s WALL (     587 calls)
     g_psi        :      0.09s CPU      0.09s WALL (     447 calls)
     cdiaghg      :      4.97s CPU      5.13s WALL (     577 calls)

     Called by h_psi:
     add_vuspsi   :      1.17s CPU      1.18s WALL (     587 calls)

     General routines
     calbec       :      1.32s CPU      1.35s WALL (     607 calls)
     fft          :      0.24s CPU      0.25s WALL (     161 calls)
     fftw         :     43.99s CPU     45.37s WALL (   39708 calls)
     davcio       :      0.00s CPU      0.01s WALL (      10 calls)

     Parallel routines
     fft_scatter  :      1.13s CPU      1.15s WALL (   39869 calls)

     PWSCF        :  1m14.46s CPU     1m17.22s WALL


   This run was terminated on:  22:57:46  13Feb2023            

=------------------------------------------------------------------------------=
   JOB DONE.
=------------------------------------------------------------------------------=
