
     Program PWSCF v.5.1 starts on 13Feb2023 at 20:35:37 

     This program is part of the open-source Quantum ESPRESSO suite
     for quantum simulation of materials; please cite
         "P. Giannozzi et al., J. Phys.:Condens. Matter 21 395502 (2009);
          URL http://www.quantum-espresso.org", 
     in publications or presentations arising from this work. More details at
     http://www.quantum-espresso.org/quote

     Parallel version (MPI), running on     1 processors
     Waiting for input...
     Reading input from standard input

     Current dimensions of program PWSCF are:
     Max number of different atomic species (ntypx) = 10
     Max number of k-points (npk) =  40000
     Max angular momentum in pseudopotentials (lmaxx) =  3

     Atomic positions and unit cell read from directory:
     ./out/Si.save/

               file Si.pbe-mt_fhi.UPF: wavefunction(s)  4f renormalized

     Subspace diagonalization in iterative solution of the eigenvalue problem:
     a serial algorithm will be used


     G-vector sticks info
     --------------------
     sticks:   dense  smooth     PW     G-vecs:    dense   smooth      PW
     Sum         733     733    211                12939    12939    2109



     bravais-lattice index     =            2
     lattice parameter (alat)  =      10.2623  a.u.
     unit-cell volume          =     270.1967 (a.u.)^3
     number of atoms/cell      =            2
     number of atomic types    =            1
     number of electrons       =         1.00
     number of Kohn-Sham states=           10
     kinetic-energy cutoff     =      50.0000  Ry
     charge density cutoff     =     200.0000  Ry
     Exchange-correlation      = PBE ( 1  4  3  4 0)

     celldm(1)=  10.262347  celldm(2)=   0.000000  celldm(3)=   0.000000
     celldm(4)=   0.000000  celldm(5)=   0.000000  celldm(6)=   0.000000

     crystal axes: (cart. coord. in units of alat)
               a(1) = (  -0.500000   0.000000   0.500000 )  
               a(2) = (   0.000000   0.500000   0.500000 )  
               a(3) = (  -0.500000   0.500000   0.000000 )  

     reciprocal axes: (cart. coord. in units 2 pi/alat)
               b(1) = ( -1.000000 -1.000000  1.000000 )  
               b(2) = (  1.000000  1.000000  1.000000 )  
               b(3) = ( -1.000000  1.000000 -1.000000 )  


     PseudoPot. # 1 for Si read from file:
     /home/acedemo/psudo/Si.pbe-mt_fhi.UPF
     MD5 check sum: 259057c2adf9952f9ced37ae3d9e311d
     Pseudo is Norm-conserving, Zval =  4.0
     Generated using FHI98PP, converted with fhi2upf.x v.5.0.2
     Using radial grid of  495 points,  3 beta functions with: 
                l(1) =   0
                l(2) =   1
                l(3) =   3

     atomic species   valence    mass     pseudopotential
        Si             4.00    28.08550     Si( 1.00)

     48 Sym. Ops., with inversion, found (24 have fractional translation)



   Cartesian axes

     site n.     atom                  positions (alat units)
         1           Si  tau(   1) = (   0.0000000   0.0000000   0.0000000  )
         2           Si  tau(   2) = (   0.2500000   0.2500000   0.2500000  )

     number of k points=    51  Marzari-Vanderbilt smearing, width (Ry)=  0.0500
                       cart. coord. in units 2pi/alat
        k(    1) = (   0.5000000   0.5000000   0.5000000), wk =   0.0000000
        k(    2) = (   0.4500000   0.4500000   0.4500000), wk =   0.0014779
        k(    3) = (   0.4000000   0.4000000   0.4000000), wk =   0.0029558
        k(    4) = (   0.3500000   0.3500000   0.3500000), wk =   0.0044337
        k(    5) = (   0.3000000   0.3000000   0.3000000), wk =   0.0059116
        k(    6) = (   0.2500000   0.2500000   0.2500000), wk =   0.0073895
        k(    7) = (   0.2000000   0.2000000   0.2000000), wk =   0.0088674
        k(    8) = (   0.1500000   0.1500000   0.1500000), wk =   0.0103453
        k(    9) = (   0.1000000   0.1000000   0.1000000), wk =   0.0118232
        k(   10) = (   0.0500000   0.0500000   0.0500000), wk =   0.0133011
        k(   11) = (   0.0000000   0.0000000   0.0000000), wk =   0.0147790
        k(   12) = (   0.0000000   0.1000000   0.0000000), wk =   0.0168691
        k(   13) = (   0.0000000   0.2000000   0.0000000), wk =   0.0189591
        k(   14) = (   0.0000000   0.3000000   0.0000000), wk =   0.0210492
        k(   15) = (   0.0000000   0.4000000   0.0000000), wk =   0.0231392
        k(   16) = (   0.0000000   0.5000000   0.0000000), wk =   0.0252293
        k(   17) = (   0.0000000   0.6000000   0.0000000), wk =   0.0273194
        k(   18) = (   0.0000000   0.7000000   0.0000000), wk =   0.0294094
        k(   19) = (   0.0000000   0.8000000   0.0000000), wk =   0.0314995
        k(   20) = (   0.0000000   0.9000000   0.0000000), wk =   0.0335896
        k(   21) = (   0.0000000   1.0000000   0.0000000), wk =   0.0356796
        k(   22) = (   0.0000000   0.9750000   0.0750000), wk =   0.0370621
        k(   23) = (   0.0000000   0.9500000   0.1500000), wk =   0.0384445
        k(   24) = (  -0.0000000   0.9250000   0.2250000), wk =   0.0398270
        k(   25) = (  -0.0000000   0.9000000   0.3000000), wk =   0.0412094
        k(   26) = (   0.0000000   0.8750000   0.3750000), wk =   0.0425919
        k(   27) = (   0.0000000   0.8500000   0.4500000), wk =   0.0439743
        k(   28) = (   0.0000000   0.8250000   0.5250000), wk =   0.0453568
        k(   29) = (  -0.0000000   0.8000000   0.6000000), wk =   0.0467392
        k(   30) = (  -0.0000000   0.7750000   0.6750000), wk =   0.0481217
        k(   31) = (   0.0000000   0.7500000   0.7500000), wk =   0.0495041
        k(   32) = (   0.0000000   0.7250000   0.7750000), wk =   0.0500266
        k(   33) = (   0.0000000   0.7000000   0.8000000), wk =   0.0505491
        k(   34) = (   0.0000000   0.6750000   0.8250000), wk =   0.0510717
        k(   35) = (   0.0000000   0.6500000   0.8500000), wk =   0.0515942
        k(   36) = (   0.0000000   0.6250000   0.8750000), wk =   0.0521167
        k(   37) = (   0.0000000   0.6000000   0.9000000), wk =   0.0526392
        k(   38) = (   0.0000000   0.5750000   0.9250000), wk =   0.0531617
        k(   39) = (   0.0000000   0.5500000   0.9500000), wk =   0.0536842
        k(   40) = (   0.0000000   0.5250000   0.9750000), wk =   0.0542067
        k(   41) = (   0.0000000   0.5000000   1.0000000), wk =   0.0547293
        k(   42) = (   0.0000000   0.4500000   0.9000000), wk =   0.0574942
        k(   43) = (  -0.0000000   0.4000000   0.8000000), wk =   0.0602591
        k(   44) = (  -0.0000000   0.3500000   0.7000000), wk =   0.0630239
        k(   45) = (  -0.0000000   0.3000000   0.6000000), wk =   0.0657888
        k(   46) = (   0.0000000   0.2500000   0.5000000), wk =   0.0685537
        k(   47) = (   0.0000000   0.2000000   0.4000000), wk =   0.0713186
        k(   48) = (   0.0000000   0.1500000   0.3000000), wk =   0.0740835
        k(   49) = (  -0.0000000   0.1000000   0.2000000), wk =   0.0768484
        k(   50) = (  -0.0000000   0.0500000   0.1000000), wk =   0.0796133
        k(   51) = (   0.0000000   0.0000000   0.0000000), wk =   0.0823782

     Dense  grid:    12939 G-vectors     FFT dimensions: (  36,  36,  36)

     Largest allocated arrays     est. size (Mb)     dimensions
        Kohn-Sham Wavefunctions         0.25 Mb     (    1639,   10)
        NL pseudopotentials             0.55 Mb     (    1639,   22)
        Each V/rho on FFT grid          0.71 Mb     (   46656)
        Each G-vector array             0.10 Mb     (   12939)
        G-vector shells                 0.00 Mb     (     180)
     Largest temporary arrays     est. size (Mb)     dimensions
        Auxiliary wavefunctions         1.00 Mb     (    1639,   40)
        Each subspace H/S matrix        0.02 Mb     (      40,   40)
        Each <psi_i|beta_j> matrix      0.00 Mb     (      22,   10)

     The potential is recalculated from file :
     ./out/Si.save/charge-density.dat

     Starting wfc are   32 randomized atomic wfcs

     Band Structure Calculation
     Davidson diagonalization with overlap

     ethr =  1.60E-10,  avg # of iterations = 14.3

     total cpu time spent up to now is       26.7 secs

     End of band structure calculation

          k = 0.5000 0.5000 0.5000 (  1622 PWs)   bands (ev):

    -2.3825   0.9677   5.8159   5.8159   9.9546  12.6020  12.6020  18.2624
    19.1755  19.1755

          k = 0.4500 0.4500 0.4500 (  1610 PWs)   bands (ev):

    -2.4663   1.1045   5.8309   5.8309   9.9703  12.5947  12.5947  17.8379
    18.6509  18.6509

          k = 0.4000 0.4000 0.4000 (  1616 PWs)   bands (ev):

    -2.6816   1.4781   5.8752   5.8752  10.0161  12.5674  12.5674  16.9934
    17.9550  17.9550

          k = 0.3500 0.3500 0.3500 (  1610 PWs)   bands (ev):

    -2.9607   2.0186   5.9468   5.9468  10.0882  12.5055  12.5055  16.0356
    17.3672  17.3672

          k = 0.3000 0.3000 0.3000 (  1615 PWs)   bands (ev):

    -3.2513   2.6702   6.0421   6.0421  10.1790  12.3916  12.3916  15.0483
    16.9339  16.9339

          k = 0.2500 0.2500 0.2500 (  1618 PWs)   bands (ev):

    -3.5231   3.3957   6.1553   6.1553  10.2754  12.2176  12.2176  14.0684
    16.6706  16.6706

          k = 0.2000 0.2000 0.2000 (  1606 PWs)   bands (ev):

    -3.7588   4.1674   6.2782   6.2782  10.3532  11.9961  11.9961  13.1301
    16.5641  16.5641

          k = 0.1500 0.1500 0.1500 (  1600 PWs)   bands (ev):

    -3.9489   4.9554   6.3990   6.3990  10.3613  11.7603  11.7603  12.2948
    16.5746  16.5746

          k = 0.1000 0.1000 0.1000 (  1606 PWs)   bands (ev):

    -4.0878   5.7123   6.5030   6.5030  10.1984  11.5520  11.5520  11.6918
    16.6468  16.6468

          k = 0.0500 0.0500 0.0500 (  1630 PWs)   bands (ev):

    -4.1723   6.3342   6.5744   6.5744   9.8519  11.4092  11.4092  11.4198
    16.7222  16.7222

          k = 0.0000 0.0000 0.0000 (  1639 PWs)   bands (ev):

    -4.2006   6.6000   6.6000   6.6000   9.6503  11.3583  11.3583  11.3583
    16.7536  16.7536

          k = 0.0000 0.1000 0.0000 (  1627 PWs)   bands (ev):

    -4.1628   6.3158   6.5304   6.5304   9.9316  11.3207  11.4800  11.4800
    16.6252  16.7998

          k = 0.0000 0.2000 0.0000 (  1599 PWs)   bands (ev):

    -4.0497   5.6606   6.3437   6.3437  10.5645  11.2170  11.8231  11.8231
    16.3043  16.9384

          k = 0.0000 0.3000 0.0000 (  1607 PWs)   bands (ev):

    -3.8619   4.8663   6.0871   6.0871  11.0706  11.2661  12.3391  12.3391
    15.9464  17.1691

          k = 0.0000 0.4000 0.0000 (  1607 PWs)   bands (ev):

    -3.6009   4.0301   5.8063   5.8063  10.9104  11.8269  12.9813  12.9813
    15.7569  17.4916

          k = 0.0000 0.5000 0.0000 (  1612 PWs)   bands (ev):

    -3.2684   3.1897   5.5341   5.5341  10.7640  12.0650  13.7150  13.7150
    15.9431  17.9053

          k = 0.0000 0.6000 0.0000 (  1620 PWs)   bands (ev):

    -2.8670   2.3627   5.2918   5.2918  10.6540  11.9662  14.5159  14.5159
    16.5398  18.4095

          k = 0.0000 0.7000 0.0000 (  1632 PWs)   bands (ev):

    -2.3994   1.5594   5.0930   5.0930  10.5976  11.6892  15.3654  15.3654
    17.4000  19.0033

          k = 0.0000 0.8000 0.0000 (  1624 PWs)   bands (ev):

    -1.8693   0.7873   4.9461   4.9461  10.6070  11.3705  16.2421  16.2421
    18.3909  19.6853

          k = 0.0000 0.9000 0.0000 (  1608 PWs)   bands (ev):

    -1.2808   0.0528   4.8561   4.8561  10.6897  11.0797  17.0907  17.0907
    19.4392  19.5470

          k = 0.0000 1.0000 0.0000 (  1604 PWs)   bands (ev):

    -0.6384  -0.6384   4.8258   4.8258  10.8484  10.8484  17.5882  17.5882
    19.0332  19.0332

          k = 0.0000 0.9750 0.0750 (  1618 PWs)   bands (ev):

    -0.7999  -0.4689   4.8062   4.8095  10.8771  10.9737  17.3642  17.4641
    18.8080  18.8991

          k = 0.0000 0.9500 0.1500 (  1622 PWs)   bands (ev):

    -0.9460  -0.3011   4.7471   4.7726  11.0579  11.2430  16.6659  17.1923
    18.3646  18.8713

          k =-0.0000 0.9250 0.2250 (  1622 PWs)   bands (ev):

    -1.0711  -0.1464   4.6561   4.7377  11.3775  11.6369  15.7565  16.8211
    17.9189  18.9411

          k =-0.0000 0.9000 0.3000 (  1623 PWs)   bands (ev):

    -1.1712  -0.0169   4.5478   4.7274  11.8160  12.1288  14.8242  16.3630
    17.5362  18.9467

          k = 0.0000 0.8750 0.3750 (  1614 PWs)   bands (ev):

    -1.2435   0.0765   4.4376   4.7575  12.3518  12.6608  13.9768  15.8489
    17.2143  18.8152

          k = 0.0000 0.8500 0.4500 (  1612 PWs)   bands (ev):

    -1.2860   0.1270   4.3394   4.8316  12.7821  12.9635  13.6849  15.3166
    16.9311  18.5626

          k = 0.0000 0.8250 0.5250 (  1611 PWs)   bands (ev):

    -1.2973   0.1335   4.2637   4.9372  12.1931  13.6259  14.2629  14.7989
    16.6705  18.2353

          k =-0.0000 0.8000 0.6000 (  1614 PWs)   bands (ev):

    -1.2766   0.0993   4.2178   5.0451  11.6340  14.1333  14.4997  14.9814
    16.4272  17.8793

          k =-0.0000 0.7750 0.6750 (  1621 PWs)   bands (ev):

    -1.2233   0.0301   4.2062   5.1144  11.2475  13.7602  15.1282  15.6777
    16.2108  17.5668

          k = 0.0000 0.7500 0.7500 (  1624 PWs)   bands (ev):

    -1.1367  -0.0693   4.2313   5.1071  11.0853  13.3287  15.7064  16.1253
    16.1705  17.5067

          k = 0.0000 0.7250 0.7750 (  1616 PWs)   bands (ev):

    -1.1312  -0.0741   4.2341   5.0949  11.1159  13.3311  15.5987  16.0529
    16.2793  17.5744

          k = 0.0000 0.7000 0.8000 (  1621 PWs)   bands (ev):

    -1.1147  -0.0886   4.2424   5.0593  11.2067  13.3382  15.3924  15.8685
    16.4890  17.7438

          k = 0.0000 0.6750 0.8250 (  1620 PWs)   bands (ev):

    -1.0873  -0.1131   4.2561   5.0038  11.3542  13.3498  15.1658  15.6241
    16.7214  17.9588

          k = 0.0000 0.6500 0.8500 (  1616 PWs)   bands (ev):

    -1.0489  -0.1478   4.2752   4.9332  11.5538  13.3653  14.9364  15.3518
    16.9593  18.1801

          k = 0.0000 0.6250 0.8750 (  1616 PWs)   bands (ev):

    -0.9996  -0.1932   4.2994   4.8531  11.7997  13.3837  14.7104  15.0677
    17.1973  18.3787

          k = 0.0000 0.6000 0.9000 (  1613 PWs)   bands (ev):

    -0.9395  -0.2498   4.3287   4.7694  12.0857  13.4032  14.4919  14.7806
    17.4326  18.5268

          k = 0.0000 0.5750 0.9250 (  1615 PWs)   bands (ev):

    -0.8685  -0.3178   4.3626   4.6870  12.4053  13.4205  14.2857  14.4967
    17.6629  18.5971

          k = 0.0000 0.5500 0.9500 (  1615 PWs)   bands (ev):

    -0.7868  -0.3976   4.4010   4.6107  12.7496  13.4281  14.1001  14.2227
    17.8859  18.5744

          k = 0.0000 0.5250 0.9750 (  1615 PWs)   bands (ev):

    -0.6945  -0.4889   4.4434   4.5439  13.0988  13.4109  13.9512  13.9764
    18.0990  18.4668

          k = 0.0000 0.5000 1.0000 (  1628 PWs)   bands (ev):

    -0.5916  -0.5916   4.4894   4.4894  13.3471  13.3471  13.8612  13.8612
    18.2981  18.2981

          k = 0.0000 0.4500 0.9000 (  1616 PWs)   bands (ev):

    -1.0595  -0.1145   4.3708   4.7029  12.9993  12.9993  13.6853  14.9095
    17.3998  18.7370

          k =-0.0000 0.4000 0.8000 (  1616 PWs)   bands (ev):

    -1.5758   0.4509   4.3999   4.9528  12.5111  12.6833  13.6058  15.9924
    16.7505  18.3364

          k =-0.0000 0.3500 0.7000 (  1618 PWs)   bands (ev):

    -2.1039   1.1023   4.5614   5.2250  12.1027  12.3873  13.6148  15.3141
    17.6463  17.9906

          k =-0.0000 0.3000 0.6000 (  1609 PWs)   bands (ev):

    -2.6105   1.8363   4.8281   5.5050  11.7861  12.0910  13.6840  14.4369
    16.9691  19.4987

          k = 0.0000 0.2500 0.5000 (  1610 PWs)   bands (ev):

    -3.0699   2.6475   5.1691   5.7789  11.5616  11.7750  13.6227  13.7193
    16.3733  18.3863

          k = 0.0000 0.2000 0.4000 (  1613 PWs)   bands (ev):

    -3.4643   3.5263   5.5509   6.0345  11.4232  11.4273  12.8966  13.4847
    15.9987  17.5606

          k = 0.0000 0.1500 0.3000 (  1607 PWs)   bands (ev):

    -3.7813   4.4541   5.9345   6.2594  11.0362  11.3576  12.2773  12.8219
    16.0302  17.1045

          k =-0.0000 0.1000 0.2000 (  1600 PWs)   bands (ev):

    -4.0127   5.3892   6.2734   6.4396  10.5584  11.3431  11.7901  12.0379
    16.3212  16.8801

          k =-0.0000 0.0500 0.1000 (  1623 PWs)   bands (ev):

    -4.1534   6.2149   6.5126   6.5582   9.9776  11.3518  11.4708  11.5187
    16.6250  16.7812

          k = 0.0000 0.0000 0.0000 (  1639 PWs)   bands (ev):

    -4.2006   6.6000   6.6000   6.6000   9.6503  11.3583  11.3583  11.3583
    16.7536  16.7536

     Writing output data file Si.save

     init_run     :      0.14s CPU      0.15s WALL (       1 calls)
     electrons    :     23.84s CPU     25.12s WALL (       1 calls)

     Called by init_run:
     wfcinit      :      0.00s CPU      0.00s WALL (       1 calls)
     potinit      :      0.04s CPU      0.04s WALL (       1 calls)

     Called by electrons:
     c_bands      :     23.84s CPU     25.12s WALL (       1 calls)
     v_of_rho     :      0.03s CPU      0.03s WALL (       1 calls)

     Called by c_bands:
     init_us_2    :      0.08s CPU      0.08s WALL (      51 calls)
     cegterg      :     18.51s CPU     19.51s WALL (      52 calls)

     Called by *egterg:
     h_psi        :     19.98s CPU     21.09s WALL (     831 calls)
     g_psi        :      0.05s CPU      0.05s WALL (     728 calls)
     cdiaghg      :      0.36s CPU      0.37s WALL (     779 calls)

     Called by h_psi:
     add_vuspsi   :      0.56s CPU      0.59s WALL (     831 calls)

     General routines
     calbec       :      0.64s CPU      0.68s WALL (     831 calls)
     fft          :      0.02s CPU      0.02s WALL (      10 calls)
     fftw         :     17.74s CPU     18.71s WALL (   14944 calls)
     davcio       :      0.00s CPU      0.00s WALL (      51 calls)

     Parallel routines
     fft_scatter  :      0.43s CPU      0.43s WALL (   14954 calls)

     PWSCF        :    25.30s CPU        26.86s WALL


   This run was terminated on:  20:36: 4  13Feb2023            

=------------------------------------------------------------------------------=
   JOB DONE.
=------------------------------------------------------------------------------=
