
     Program PWSCF v.5.1 starts on 13Feb2023 at 20:34:58 

     This program is part of the open-source Quantum ESPRESSO suite
     for quantum simulation of materials; please cite
         "P. Giannozzi et al., J. Phys.:Condens. Matter 21 395502 (2009);
          URL http://www.quantum-espresso.org", 
     in publications or presentations arising from this work. More details at
     http://www.quantum-espresso.org/quote

     Parallel version (MPI), running on     1 processors
     Waiting for input...
     Reading input from standard input

     Current dimensions of program PWSCF are:
     Max number of different atomic species (ntypx) = 10
     Max number of k-points (npk) =  40000
     Max angular momentum in pseudopotentials (lmaxx) =  3

     Atomic positions and unit cell read from directory:
     ./out/Si.save/

               file Si.pbe-mt_fhi.UPF: wavefunction(s)  4f renormalized

     Subspace diagonalization in iterative solution of the eigenvalue problem:
     a serial algorithm will be used


     G-vector sticks info
     --------------------
     sticks:   dense  smooth     PW     G-vecs:    dense   smooth      PW
     Sum         733     733    223                12939    12939    2229



     bravais-lattice index     =            2
     lattice parameter (alat)  =      10.2623  a.u.
     unit-cell volume          =     270.1967 (a.u.)^3
     number of atoms/cell      =            2
     number of atomic types    =            1
     number of electrons       =         1.00
     number of Kohn-Sham states=           10
     kinetic-energy cutoff     =      50.0000  Ry
     charge density cutoff     =     200.0000  Ry
     Exchange-correlation      = PBE ( 1  4  3  4 0)

     celldm(1)=  10.262347  celldm(2)=   0.000000  celldm(3)=   0.000000
     celldm(4)=   0.000000  celldm(5)=   0.000000  celldm(6)=   0.000000

     crystal axes: (cart. coord. in units of alat)
               a(1) = (  -0.500000   0.000000   0.500000 )  
               a(2) = (   0.000000   0.500000   0.500000 )  
               a(3) = (  -0.500000   0.500000   0.000000 )  

     reciprocal axes: (cart. coord. in units 2 pi/alat)
               b(1) = ( -1.000000 -1.000000  1.000000 )  
               b(2) = (  1.000000  1.000000  1.000000 )  
               b(3) = ( -1.000000  1.000000 -1.000000 )  


     PseudoPot. # 1 for Si read from file:
     /home/acedemo/psudo/Si.pbe-mt_fhi.UPF
     MD5 check sum: 259057c2adf9952f9ced37ae3d9e311d
     Pseudo is Norm-conserving, Zval =  4.0
     Generated using FHI98PP, converted with fhi2upf.x v.5.0.2
     Using radial grid of  495 points,  3 beta functions with: 
                l(1) =   0
                l(2) =   1
                l(3) =   3

     atomic species   valence    mass     pseudopotential
        Si             4.00    28.08550     Si( 1.00)

     48 Sym. Ops., with inversion, found (24 have fractional translation)



   Cartesian axes

     site n.     atom                  positions (alat units)
         1           Si  tau(   1) = (   0.0000000   0.0000000   0.0000000  )
         2           Si  tau(   2) = (   0.2500000   0.2500000   0.2500000  )

     number of k points=    72 (tetrahedron method)
                       cart. coord. in units 2pi/alat
        k(    1) = (   0.0000000   0.0000000   0.0000000), wk =   0.0011574
        k(    2) = (  -0.0833333   0.0833333  -0.0833333), wk =   0.0092593
        k(    3) = (  -0.1666667   0.1666667  -0.1666667), wk =   0.0092593
        k(    4) = (  -0.2500000   0.2500000  -0.2500000), wk =   0.0092593
        k(    5) = (  -0.3333333   0.3333333  -0.3333333), wk =   0.0092593
        k(    6) = (  -0.4166667   0.4166667  -0.4166667), wk =   0.0092593
        k(    7) = (   0.5000000  -0.5000000   0.5000000), wk =   0.0046296
        k(    8) = (   0.0000000   0.1666667   0.0000000), wk =   0.0069444
        k(    9) = (  -0.0833333   0.2500000  -0.0833333), wk =   0.0277778
        k(   10) = (  -0.1666667   0.3333333  -0.1666667), wk =   0.0277778
        k(   11) = (  -0.2500000   0.4166667  -0.2500000), wk =   0.0277778
        k(   12) = (  -0.3333333   0.5000000  -0.3333333), wk =   0.0277778
        k(   13) = (   0.5833333  -0.4166667   0.5833333), wk =   0.0277778
        k(   14) = (   0.5000000  -0.3333333   0.5000000), wk =   0.0277778
        k(   15) = (   0.4166667  -0.2500000   0.4166667), wk =   0.0277778
        k(   16) = (   0.3333333  -0.1666667   0.3333333), wk =   0.0277778
        k(   17) = (   0.2500000  -0.0833333   0.2500000), wk =   0.0277778
        k(   18) = (   0.1666667  -0.0000000   0.1666667), wk =   0.0138889
        k(   19) = (   0.0000000   0.3333333   0.0000000), wk =   0.0069444
        k(   20) = (  -0.0833333   0.4166667  -0.0833333), wk =   0.0277778
        k(   21) = (  -0.1666667   0.5000000  -0.1666667), wk =   0.0277778
        k(   22) = (  -0.2500000   0.5833333  -0.2500000), wk =   0.0277778
        k(   23) = (   0.6666667  -0.3333333   0.6666667), wk =   0.0277778
        k(   24) = (   0.5833333  -0.2500000   0.5833333), wk =   0.0277778
        k(   25) = (   0.5000000  -0.1666667   0.5000000), wk =   0.0277778
        k(   26) = (   0.4166667  -0.0833333   0.4166667), wk =   0.0277778
        k(   27) = (   0.3333333   0.0000000   0.3333333), wk =   0.0138889
        k(   28) = (   0.0000000   0.5000000   0.0000000), wk =   0.0069444
        k(   29) = (  -0.0833333   0.5833333  -0.0833333), wk =   0.0277778
        k(   30) = (  -0.1666667   0.6666667  -0.1666667), wk =   0.0277778
        k(   31) = (   0.7500000  -0.2500000   0.7500000), wk =   0.0277778
        k(   32) = (   0.6666667  -0.1666667   0.6666667), wk =   0.0277778
        k(   33) = (   0.5833333  -0.0833333   0.5833333), wk =   0.0277778
        k(   34) = (   0.5000000   0.0000000   0.5000000), wk =   0.0138889
        k(   35) = (   0.0000000   0.6666667   0.0000000), wk =   0.0069444
        k(   36) = (  -0.0833333   0.7500000  -0.0833333), wk =   0.0277778
        k(   37) = (   0.8333333  -0.1666667   0.8333333), wk =   0.0277778
        k(   38) = (   0.7500000  -0.0833333   0.7500000), wk =   0.0277778
        k(   39) = (   0.6666667   0.0000000   0.6666667), wk =   0.0138889
        k(   40) = (   0.0000000   0.8333333   0.0000000), wk =   0.0069444
        k(   41) = (   0.9166667  -0.0833333   0.9166667), wk =   0.0277778
        k(   42) = (   0.8333333   0.0000000   0.8333333), wk =   0.0138889
        k(   43) = (   0.0000000  -1.0000000   0.0000000), wk =   0.0034722
        k(   44) = (  -0.1666667   0.3333333   0.0000000), wk =   0.0277778
        k(   45) = (  -0.2500000   0.4166667  -0.0833333), wk =   0.0555556
        k(   46) = (  -0.3333333   0.5000000  -0.1666667), wk =   0.0555556
        k(   47) = (   0.5833333  -0.4166667   0.7500000), wk =   0.0555556
        k(   48) = (   0.5000000  -0.3333333   0.6666667), wk =   0.0277778
        k(   49) = (  -0.1666667   0.5000000   0.0000000), wk =   0.0277778
        k(   50) = (  -0.2500000   0.5833333  -0.0833333), wk =   0.0555556
        k(   51) = (   0.6666667  -0.3333333   0.8333333), wk =   0.0555556
        k(   52) = (   0.5833333  -0.2500000   0.7500000), wk =   0.0555556
        k(   53) = (   0.5000000  -0.1666667   0.6666667), wk =   0.0555556
        k(   54) = (   0.4166667  -0.0833333   0.5833333), wk =   0.0555556
        k(   55) = (   0.3333333   0.0000000   0.5000000), wk =   0.0277778
        k(   56) = (  -0.1666667   0.6666667  -0.0000000), wk =   0.0277778
        k(   57) = (   0.7500000  -0.2500000   0.9166667), wk =   0.0555556
        k(   58) = (   0.6666667  -0.1666667   0.8333333), wk =   0.0555556
        k(   59) = (   0.5833333  -0.0833333   0.7500000), wk =   0.0555556
        k(   60) = (   0.5000000   0.0000000   0.6666667), wk =   0.0277778
        k(   61) = (   0.8333333  -0.1666667   1.0000000), wk =   0.0277778
        k(   62) = (   0.7500000  -0.0833333   0.9166667), wk =   0.0555556
        k(   63) = (   0.6666667   0.0000000   0.8333333), wk =   0.0277778
        k(   64) = (  -0.1666667  -1.0000000   0.0000000), wk =   0.0138889
        k(   65) = (   0.6666667  -0.3333333   1.0000000), wk =   0.0277778
        k(   66) = (   0.5833333  -0.2500000   0.9166667), wk =   0.0555556
        k(   67) = (   0.5000000  -0.1666667   0.8333333), wk =   0.0277778
        k(   68) = (   0.6666667  -0.1666667   1.0000000), wk =   0.0277778
        k(   69) = (   0.5833333  -0.0833333   0.9166667), wk =   0.0555556
        k(   70) = (   0.5000000   0.0000000   0.8333333), wk =   0.0277778
        k(   71) = (  -0.3333333  -1.0000000   0.0000000), wk =   0.0138889
        k(   72) = (  -0.5000000  -1.0000000   0.0000000), wk =   0.0069444

     Dense  grid:    12939 G-vectors     FFT dimensions: (  36,  36,  36)

     Largest allocated arrays     est. size (Mb)     dimensions
        Kohn-Sham Wavefunctions         0.25 Mb     (    1639,   10)
        NL pseudopotentials             0.55 Mb     (    1639,   22)
        Each V/rho on FFT grid          0.71 Mb     (   46656)
        Each G-vector array             0.10 Mb     (   12939)
        G-vector shells                 0.00 Mb     (     180)
     Largest temporary arrays     est. size (Mb)     dimensions
        Auxiliary wavefunctions         1.00 Mb     (    1639,   40)
        Each subspace H/S matrix        0.02 Mb     (      40,   40)
        Each <psi_i|beta_j> matrix      0.00 Mb     (      22,   10)

     The potential is recalculated from file :
     ./out/Si.save/charge-density.dat

     Starting wfc are   32 randomized atomic wfcs

     Band Structure Calculation
     Davidson diagonalization with overlap

     ethr =  1.60E-10,  avg # of iterations = 14.9

     total cpu time spent up to now is       32.0 secs

     End of band structure calculation

          k = 0.0000 0.0000 0.0000 (  1639 PWs)   bands (ev):

    -4.2006   6.6000   6.6000   6.6000   9.6503  11.3583  11.3583  11.3583
    16.7536  16.7536

          k =-0.0833 0.0833-0.0833 (  1612 PWs)   bands (ev):

    -4.1222   5.9427   6.5312   6.5312  10.0936  11.4955  11.4955  11.5667
    16.6743  16.6743

          k =-0.1667 0.1667-0.1667 (  1591 PWs)   bands (ev):

    -3.8910   4.6932   6.3598   6.3598  10.3716  11.8380  11.8380  12.5555
    16.5614  16.5614

          k =-0.2500 0.2500-0.2500 (  1618 PWs)   bands (ev):

    -3.5231   3.3957   6.1553   6.1553  10.2754  12.2176  12.2176  14.0684
    16.6706  16.6706

          k =-0.3333 0.3333-0.3333 (  1616 PWs)   bands (ev):

    -3.0581   2.2256   5.9761   5.9761  10.1169  12.4741  12.4741  15.7076
    17.2043  17.2043

          k =-0.4167 0.4167-0.4167 (  1616 PWs)   bands (ev):

    -2.5995   1.3316   5.8572   5.8572   9.9977  12.5794  12.5794  17.2949
    18.1787  18.1787

          k = 0.5000-0.5000 0.5000 (  1622 PWs)   bands (ev):

    -2.3825   0.9677   5.8159   5.8159   9.9546  12.6020  12.6020  18.2624
    19.1755  19.1755

          k = 0.0000 0.1667 0.0000 (  1615 PWs)   bands (ev):

    -4.0957   5.9024   6.4162   6.4162  10.3344  11.2577  11.6870  11.6870
    16.4242  16.8820

          k =-0.0833 0.2500-0.0833 (  1599 PWs)   bands (ev):

    -3.9145   4.9402   6.2161   6.2826  10.7576  11.3534  12.0784  12.3487
    16.1701  16.9636

          k =-0.1667 0.3333-0.1667 (  1610 PWs)   bands (ev):

    -3.5895   3.7167   6.0046   6.0886  10.7064  11.7781  12.5001  13.5404
    16.1866  17.1219

          k =-0.2500 0.4167-0.2500 (  1606 PWs)   bands (ev):

    -3.1497   2.5345   5.8360   5.8615  10.5434  12.2008  12.7803  14.7580
    16.7986  17.6154

          k =-0.3333 0.5000-0.3333 (  1616 PWs)   bands (ev):

    -2.6690   1.5494   5.6628   5.7407  10.4051  12.4580  12.8697  15.9330
    17.9867  18.5261

          k = 0.5833-0.4167 0.5833 (  1615 PWs)   bands (ev):

    -2.3356   0.9819   5.5312   5.7311  10.3344  12.5833  12.8406  17.2222
    18.5768  19.1456

          k = 0.5000-0.3333 0.5000 (  1616 PWs)   bands (ev):

    -2.4132   1.1073   5.4873   5.8070  10.3463  12.6502  12.7540  17.2456
    17.9048  18.6766

          k = 0.4167-0.2500 0.4167 (  1611 PWs)   bands (ev):

    -2.8275   1.8481   5.5398   5.9570  10.4363  12.5947  12.6453  15.8383
    16.8642  18.5682

          k = 0.3333-0.1667 0.3333 (  1605 PWs)   bands (ev):

    -3.3078   2.9140   5.6881   6.1565  10.5767  12.3043  12.4635  14.4643
    16.2795  17.5518

          k = 0.2500-0.0833 0.2500 (  1600 PWs)   bands (ev):

    -3.7139   4.1126   5.9227   6.3618  10.6865  11.9128  12.0298  13.1980
    16.1675  16.9990

          k = 0.1667-0.0000 0.1667 (  1592 PWs)   bands (ev):

    -3.9924   5.2459   6.2312   6.5083  10.5118  11.5877  11.6018  12.1744
    16.3720  16.8101

          k = 0.0000 0.3333 0.0000 (  1607 PWs)   bands (ev):

    -3.7830   4.5897   5.9943   5.9943  11.0173  11.4788  12.5412  12.5412
    15.8532  17.2664

          k =-0.0833 0.4167-0.0833 (  1616 PWs)   bands (ev):

    -3.5035   3.6948   5.7684   5.7708  11.0364  11.7406  13.0551  13.2902
    15.9080  17.5389

          k =-0.1667 0.5000-0.1667 (  1611 PWs)   bands (ev):

    -3.0962   2.6481   5.4955   5.6001  11.0946  12.0607  13.4256  13.8759
    16.7375  18.0277

          k =-0.2500 0.5833-0.2500 (  1610 PWs)   bands (ev):

    -2.6128   1.6734   5.2139   5.5119  11.0346  12.5166  13.5570  14.4356
    18.1200  18.8969

          k = 0.6667-0.3333 0.6667 (  1607 PWs)   bands (ev):

    -2.1933   0.9776   4.9900   5.5177  10.9816  12.7753  13.5103  15.4451
    18.5119  19.1030

          k = 0.5833-0.2500 0.5833 (  1602 PWs)   bands (ev):

    -2.1227   0.8708   4.8678   5.6152  10.9881  12.8974  13.3678  16.7717
    17.1524  17.7344

          k = 0.5000-0.1667 0.5000 (  1610 PWs)   bands (ev):

    -2.4713   1.4216   4.8760   5.7894  11.0542  12.9488  13.1295  15.6581
    16.6504  18.4182

          k = 0.4167-0.0833 0.4167 (  1613 PWs)   bands (ev):

    -2.9562   2.3135   5.0404   6.0095  11.1382  12.7431  12.7955  14.5364
    16.0481  18.9183

          k = 0.3333 0.0000 0.3333 (  1604 PWs)   bands (ev):

    -3.3934   3.2790   5.3925   6.2241  11.0935  12.2698  12.3232  13.8432
    15.9386  17.7331

          k = 0.0000 0.5000 0.0000 (  1612 PWs)   bands (ev):

    -3.2684   3.1897   5.5341   5.5341  10.7640  12.0650  13.7150  13.7150
    15.9431  17.9053

          k =-0.0833 0.5833-0.0833 (  1617 PWs)   bands (ev):

    -2.8979   2.3966   5.2753   5.3519  10.8395  12.0831  14.1484  14.2617
    16.7420  18.3922

          k =-0.1667 0.6667-0.1667 (  1620 PWs)   bands (ev):

    -2.4262   1.5484   4.9372   5.2563  11.0428  12.4479  14.1958  14.5202
    18.1776  19.2280

          k = 0.7500-0.2500 0.7500 (  1617 PWs)   bands (ev):

    -1.9513   0.8323   4.6150   5.2601  11.1287  13.2799  14.2739  14.5083
    18.5150  19.0978

          k = 0.6667-0.1667 0.6667 (  1607 PWs)   bands (ev):

    -1.7417   0.5501   4.4030   5.3619  11.1993  13.7775  14.3235  15.0986
    16.9776  17.6838

          k = 0.5833-0.0833 0.5833 (  1611 PWs)   bands (ev):

    -2.0164   0.9158   4.3681   5.5464  11.2964  13.8388  13.9634  15.4837
    16.6227  16.6345

          k = 0.5000 0.0000 0.5000 (  1604 PWs)   bands (ev):

    -2.4988   1.6065   4.5687   5.7807  11.3501  13.3822  13.5041  14.6168
    16.1012  18.3301

          k = 0.0000 0.6667 0.0000 (  1624 PWs)   bands (ev):

    -2.5624   1.8241   5.1539   5.1539  10.6096  11.7913  15.0780  15.0780
    17.0937  18.7955

          k =-0.0833 0.7500-0.0833 (  1618 PWs)   bands (ev):

    -2.1113   1.1255   4.9149   5.0419  10.7588  11.7038  15.4328  15.6018
    18.2558  19.5077

          k = 0.8333-0.1667 0.8333 (  1619 PWs)   bands (ev):

    -1.6070   0.4610   4.5703   5.0318  10.9767  12.2163  15.4274  15.7125
    18.5731  19.1229

          k = 0.7500-0.0833 0.7500 (  1620 PWs)   bands (ev):

    -1.2877   0.0909   4.2754   5.1245  11.0924  13.3477  15.3825  15.4825
    16.9510  17.7769

          k = 0.6667 0.0000 0.6667 (  1612 PWs)   bands (ev):

    -1.5330   0.3699   4.1740   5.3064  11.2202  14.6857  14.8675  15.3608
    15.5169  16.9166

          k = 0.0000 0.8333 0.0000 (  1628 PWs)   bands (ev):

    -1.6794   0.5380   4.9096   4.9096  10.6262  11.2684  16.5334  16.5334
    18.7364  19.9320

          k = 0.9167-0.0833 0.9167 (  1622 PWs)   bands (ev):

    -1.1639  -0.0699   4.7276   4.8791  10.8353  11.2704  16.8843  16.9297
    18.7356  19.1104

          k = 0.8333 0.0000 0.8333 (  1614 PWs)   bands (ev):

    -0.8526  -0.3849   4.4445   4.9543  10.9619  12.0684  16.5491  16.7707
    17.2160  18.1535

          k = 0.0000-1.0000 0.0000 (  1604 PWs)   bands (ev):

    -0.6384  -0.6384   4.8258   4.8258  10.8484  10.8484  17.5882  17.5882
    19.0332  19.0332

          k =-0.1667 0.3333 0.0000 (  1603 PWs)   bands (ev):

    -3.6848   4.1412   5.8091   6.1887  11.1730  11.3726  12.4705  13.0787
    15.9776  17.2239

          k =-0.2500 0.4167-0.0833 (  1607 PWs)   bands (ev):

    -3.3182   3.0996   5.4656   6.0192  11.1530  11.8429  12.9371  13.8570
    16.1576  17.7742

          k =-0.3333 0.5000-0.1667 (  1604 PWs)   bands (ev):

    -2.8525   2.0585   5.2385   5.8191  11.0189  12.3212  13.2096  14.6525
    16.8608  18.8041

          k = 0.5833-0.4167 0.7500 (  1612 PWs)   bands (ev):

    -2.3873   1.2203   5.1131   5.6645  10.9147  12.5571  13.2979  15.7048
    17.9622  18.5848

          k = 0.5000-0.3333 0.6667 (  1602 PWs)   bands (ev):

    -2.1633   0.8681   5.0739   5.6066  10.8766  12.6116  13.3143  16.9211
    17.1788  19.0123

          k =-0.1667 0.5000 0.0000 (  1617 PWs)   bands (ev):

    -3.1797   2.9248   5.3552   5.6707  11.1355  11.9544  13.6155  13.6716
    16.2847  18.0378

          k =-0.2500 0.5833-0.0833 (  1611 PWs)   bands (ev):

    -2.7393   2.0357   5.0240   5.5032  11.3610  12.2430  13.7238  14.1928
    17.1134  19.0078

          k = 0.6667-0.3333 0.8333 (  1617 PWs)   bands (ev):

    -2.2498   1.2111   4.7737   5.3740  11.4015  12.7291  13.9932  14.4922
    18.2097  18.6257

          k = 0.5833-0.2500 0.7500 (  1607 PWs)   bands (ev):

    -1.9028   0.7047   4.6083   5.3550  11.4126  12.8947  14.2426  15.2930
    16.9735  19.0325

          k = 0.5000-0.1667 0.6667 (  1605 PWs)   bands (ev):

    -1.9990   0.8386   4.5572   5.4526  11.4663  12.8680  14.1662  15.5563
    16.7501  17.8438

          k = 0.4167-0.0833 0.5833 (  1610 PWs)   bands (ev):

    -2.4357   1.4949   4.6605   5.6369  11.5507  12.6350  13.9519  14.5249
    16.7915  18.3956

          k = 0.3333 0.0000 0.5000 (  1606 PWs)   bands (ev):

    -2.9183   2.3215   4.9595   5.8529  11.5627  12.1054  13.5637  13.9866
    16.2767  18.9869

          k =-0.1667 0.6667-0.0000 (  1626 PWs)   bands (ev):

    -2.4891   1.6900   4.9914   5.2029  10.9886  12.0310  14.3162  15.0607
    17.5158  19.1746

          k = 0.7500-0.2500 0.9167 (  1621 PWs)   bands (ev):

    -1.9967   0.9606   4.6849   5.0815  11.2986  12.3839  14.2326  15.5293
    18.4418  18.7612

          k = 0.6667-0.1667 0.8333 (  1616 PWs)   bands (ev):

    -1.5575   0.3954   4.4033   5.0794  11.4317  13.3563  14.1457  15.5738
    17.0354  18.9996

          k = 0.5833-0.0833 0.7500 (  1614 PWs)   bands (ev):

    -1.5322   0.3651   4.2528   5.1966  11.5411  13.8099  14.8724  15.1866
    15.8542  17.8018

          k = 0.5000 0.0000 0.6667 (  1621 PWs)   bands (ev):

    -1.9464   0.8704   4.3206   5.4007  11.6449  13.3714  14.4746  14.9699
    16.6540  16.9928

          k = 0.8333-0.1667 1.0000 (  1617 PWs)   bands (ev):

    -1.6304   0.4918   4.7761   4.8807  11.0016  11.5969  15.5586  16.5156
    18.8703  18.9401

          k = 0.7500-0.0833 0.9167 (  1620 PWs)   bands (ev):

    -1.1298  -0.0766   4.5000   4.8590  11.2893  12.1408  15.4417  16.5830
    17.5034  18.8755

          k = 0.6667 0.0000 0.8333 (  1620 PWs)   bands (ev):

    -1.0757  -0.1235   4.2619   4.9817  11.4153  13.3546  15.0893  15.5354
    16.8004  18.0334

          k =-0.1667-1.0000 0.0000 (  1622 PWs)   bands (ev):

    -0.6269  -0.6269   4.7362   4.7362  11.2086  11.2086  16.8887  16.8887
    18.4942  18.4942

          k = 0.6667-0.3333 1.0000 (  1610 PWs)   bands (ev):

    -2.2766   1.3380   4.6401   5.3182  11.9868  12.2896  13.6338  15.0177
    17.4145  18.4946

          k = 0.5833-0.2500 0.9167 (  1611 PWs)   bands (ev):

    -1.7891   0.6805   4.4210   5.1389  12.1445  12.7573  13.9303  15.4894
    16.8165  18.1965

          k = 0.5000-0.1667 0.8333 (  1610 PWs)   bands (ev):

    -1.5313   0.3604   4.3526   5.0667  12.1372  12.8909  14.9411  15.0795
    15.9409  19.0601

          k = 0.6667-0.1667 1.0000 (  1618 PWs)   bands (ev):

    -1.4936   0.3534   4.4993   4.8529  12.0023  12.4566  14.0654  16.3111
    17.1868  18.7095

          k = 0.5833-0.0833 0.9167 (  1615 PWs)   bands (ev):

    -1.0937  -0.0854   4.3502   4.7724  12.2891  13.3748  13.9392  15.1296
    17.1633  18.8848

          k = 0.5000 0.0000 0.8333 (  1612 PWs)   bands (ev):

    -1.2971   0.1361   4.2859   4.9000  12.4017  13.4018  14.0393  14.9674
    16.7554  18.3499

          k =-0.3333-1.0000 0.0000 (  1618 PWs)   bands (ev):

    -0.6035  -0.6035   4.5685   4.5685  12.1795  12.1795  15.2744  15.2744
    18.3239  18.3239

          k =-0.5000-1.0000 0.0000 (  1628 PWs)   bands (ev):

    -0.5916  -0.5916   4.4894   4.4894  13.3471  13.3471  13.8612  13.8612
    18.2981  18.2981

     the Fermi energy is    -2.2424 ev

     Writing output data file Si.save

     init_run     :      0.16s CPU      0.17s WALL (       1 calls)
     electrons    :     30.25s CPU     31.41s WALL (       1 calls)

     Called by init_run:
     wfcinit      :      0.00s CPU      0.00s WALL (       1 calls)
     potinit      :      0.05s CPU      0.05s WALL (       1 calls)

     Called by electrons:
     c_bands      :     30.16s CPU     31.32s WALL (       1 calls)
     v_of_rho     :      0.04s CPU      0.05s WALL (       1 calls)

     Called by c_bands:
     init_us_2    :      0.11s CPU      0.12s WALL (      72 calls)
     cegterg      :     23.37s CPU     24.24s WALL (      72 calls)

     Called by *egterg:
     h_psi        :     25.35s CPU     26.33s WALL (    1217 calls)
     g_psi        :      0.06s CPU      0.06s WALL (    1073 calls)
     cdiaghg      :      0.45s CPU      0.47s WALL (    1145 calls)

     Called by h_psi:
     add_vuspsi   :      0.74s CPU      0.74s WALL (    1217 calls)

     General routines
     calbec       :      0.80s CPU      0.83s WALL (    1217 calls)
     fft          :      0.02s CPU      0.02s WALL (      10 calls)
     fftw         :     22.58s CPU     23.48s WALL (   21396 calls)
     davcio       :      0.00s CPU      0.00s WALL (      72 calls)

     Parallel routines
     fft_scatter  :      0.55s CPU      0.56s WALL (   21406 calls)

     PWSCF        :    32.16s CPU        33.36s WALL


   This run was terminated on:  20:35:31  13Feb2023            

=------------------------------------------------------------------------------=
   JOB DONE.
=------------------------------------------------------------------------------=
