
     Program PWSCF v.5.1 starts on 13Feb2023 at 20:34:32 

     This program is part of the open-source Quantum ESPRESSO suite
     for quantum simulation of materials; please cite
         "P. Giannozzi et al., J. Phys.:Condens. Matter 21 395502 (2009);
          URL http://www.quantum-espresso.org", 
     in publications or presentations arising from this work. More details at
     http://www.quantum-espresso.org/quote

     Parallel version (MPI), running on     1 processors
     Waiting for input...
     Reading input from standard input

     Current dimensions of program PWSCF are:
     Max number of different atomic species (ntypx) = 10
     Max number of k-points (npk) =  40000
     Max angular momentum in pseudopotentials (lmaxx) =  3
               file Si.pbe-mt_fhi.UPF: wavefunction(s)  4f renormalized

     Subspace diagonalization in iterative solution of the eigenvalue problem:
     a serial algorithm will be used


     G-vector sticks info
     --------------------
     sticks:   dense  smooth     PW     G-vecs:    dense   smooth      PW
     Sum         733     733    211                12939    12939    2109



     bravais-lattice index     =            2
     lattice parameter (alat)  =      10.2623  a.u.
     unit-cell volume          =     270.1967 (a.u.)^3
     number of atoms/cell      =            2
     number of atomic types    =            1
     number of electrons       =         1.00
     number of Kohn-Sham states=           10
     kinetic-energy cutoff     =      50.0000  Ry
     charge density cutoff     =     200.0000  Ry
     convergence threshold     =      1.6E-09
     mixing beta               =       0.3000
     number of iterations used =            8  plain     mixing
     Exchange-correlation      = PBE ( 1  4  3  4 0)

     celldm(1)=  10.262347  celldm(2)=   0.000000  celldm(3)=   0.000000
     celldm(4)=   0.000000  celldm(5)=   0.000000  celldm(6)=   0.000000

     crystal axes: (cart. coord. in units of alat)
               a(1) = (  -0.500000   0.000000   0.500000 )  
               a(2) = (   0.000000   0.500000   0.500000 )  
               a(3) = (  -0.500000   0.500000   0.000000 )  

     reciprocal axes: (cart. coord. in units 2 pi/alat)
               b(1) = ( -1.000000 -1.000000  1.000000 )  
               b(2) = (  1.000000  1.000000  1.000000 )  
               b(3) = ( -1.000000  1.000000 -1.000000 )  


     PseudoPot. # 1 for Si read from file:
     /home/acedemo/psudo/Si.pbe-mt_fhi.UPF
     MD5 check sum: 259057c2adf9952f9ced37ae3d9e311d
     Pseudo is Norm-conserving, Zval =  4.0
     Generated using FHI98PP, converted with fhi2upf.x v.5.0.2
     Using radial grid of  495 points,  3 beta functions with: 
                l(1) =   0
                l(2) =   1
                l(3) =   3

     atomic species   valence    mass     pseudopotential
        Si             4.00    28.08550     Si( 1.00)

     48 Sym. Ops., with inversion, found (24 have fractional translation)



   Cartesian axes

     site n.     atom                  positions (alat units)
         1           Si  tau(   1) = (   0.0000000   0.0000000   0.0000000  )
         2           Si  tau(   2) = (   0.2500000   0.2500000   0.2500000  )

     number of k points=    10  Marzari-Vanderbilt smearing, width (Ry)=  0.0500
                       cart. coord. in units 2pi/alat
        k(    1) = (   0.0000000   0.0000000   0.0000000), wk =   0.0160000
        k(    2) = (  -0.2000000   0.2000000  -0.2000000), wk =   0.1280000
        k(    3) = (  -0.4000000   0.4000000  -0.4000000), wk =   0.1280000
        k(    4) = (   0.0000000   0.4000000   0.0000000), wk =   0.0960000
        k(    5) = (  -0.2000000   0.6000000  -0.2000000), wk =   0.3840000
        k(    6) = (   0.6000000  -0.2000000   0.6000000), wk =   0.3840000
        k(    7) = (   0.4000000   0.0000000   0.4000000), wk =   0.1920000
        k(    8) = (   0.0000000   0.8000000   0.0000000), wk =   0.0960000
        k(    9) = (   0.8000000   0.0000000   0.8000000), wk =   0.1920000
        k(   10) = (   0.6000000  -0.2000000   1.0000000), wk =   0.3840000

     Dense  grid:    12939 G-vectors     FFT dimensions: (  36,  36,  36)

     Largest allocated arrays     est. size (Mb)     dimensions
        Kohn-Sham Wavefunctions         0.25 Mb     (    1639,   10)
        NL pseudopotentials             0.55 Mb     (    1639,   22)
        Each V/rho on FFT grid          0.71 Mb     (   46656)
        Each G-vector array             0.10 Mb     (   12939)
        G-vector shells                 0.00 Mb     (     180)
     Largest temporary arrays     est. size (Mb)     dimensions
        Auxiliary wavefunctions         1.00 Mb     (    1639,   40)
        Each subspace H/S matrix        0.02 Mb     (      40,   40)
        Each <psi_i|beta_j> matrix      0.00 Mb     (      22,   10)
        Arrays for rho mixing           5.70 Mb     (   46656,    8)

     Initial potential from superposition of free atoms

     starting charge    7.99859, renormalised to    1.00000
     Starting wfc are   32 randomized atomic wfcs

     total cpu time spent up to now is        1.1 secs

     per-process dynamical memory:    15.9 Mb

     Self-consistent Calculation

     iteration #  1     ecut=    50.00 Ry     beta=0.30
     Davidson diagonalization with overlap
     ethr =  1.00E-02,  avg # of iterations =  2.1

     Threshold (ethr) on eigenvalues was too large:
     Diagonalizing with lowered threshold

     Davidson diagonalization with overlap
     ethr =  3.62E-04,  avg # of iterations =  1.0

     total cpu time spent up to now is        3.0 secs

     total energy              =     -16.94171402 Ry
     Harris-Foulkes estimate   =     -16.93845951 Ry
     estimated scf accuracy    <       0.00356431 Ry

     iteration #  2     ecut=    50.00 Ry     beta=0.30
     Davidson diagonalization with overlap
     ethr =  3.56E-04,  avg # of iterations =  1.0

     total cpu time spent up to now is        3.9 secs

     total energy              =     -16.94474536 Ry
     Harris-Foulkes estimate   =     -16.94178464 Ry
     estimated scf accuracy    <       0.00186434 Ry

     iteration #  3     ecut=    50.00 Ry     beta=0.30
     Davidson diagonalization with overlap
     ethr =  1.86E-04,  avg # of iterations =  1.9

     total cpu time spent up to now is        5.2 secs

     total energy              =     -16.94495990 Ry
     Harris-Foulkes estimate   =     -16.94496514 Ry
     estimated scf accuracy    <       0.00000150 Ry

     iteration #  4     ecut=    50.00 Ry     beta=0.30
     Davidson diagonalization with overlap
     ethr =  1.50E-07,  avg # of iterations =  3.2

     total cpu time spent up to now is        6.5 secs

     total energy              =     -16.94496281 Ry
     Harris-Foulkes estimate   =     -16.94496065 Ry
     estimated scf accuracy    <       0.00000045 Ry

     iteration #  5     ecut=    50.00 Ry     beta=0.30
     Davidson diagonalization with overlap
     ethr =  4.49E-08,  avg # of iterations =  1.9

     total cpu time spent up to now is        7.3 secs

     End of self-consistent calculation

          k = 0.0000 0.0000 0.0000 (  1639 PWs)   bands (ev):

    -4.2007   6.6001   6.6001   6.6001   9.6500  11.3580  11.3580  11.3580
    16.7534  16.7534

          k =-0.2000 0.2000-0.2000 (  1606 PWs)   bands (ev):

    -3.7588   4.1674   6.2783   6.2783  10.3530  11.9958  11.9958  13.1300
    16.5639  16.5639

          k =-0.4000 0.4000-0.4000 (  1616 PWs)   bands (ev):

    -2.6816   1.4781   5.8753   5.8753  10.0159  12.5671  12.5671  16.9933
    17.9548  17.9548

          k = 0.0000 0.4000 0.0000 (  1607 PWs)   bands (ev):

    -3.6009   4.0302   5.8064   5.8064  10.9102  11.8268  12.9811  12.9811
    15.7568  17.4914

          k =-0.2000 0.6000-0.2000 (  1619 PWs)   bands (ev):

    -2.6529   1.8380   5.1296   5.4189  11.1106  12.5166  13.9029  13.9928
    17.8521  18.8368

          k = 0.6000-0.2000 0.6000 (  1596 PWs)   bands (ev):

    -2.0146   0.8062   4.6333   5.5470  11.1500  13.1901  13.6709  16.3653
    16.7764  17.4488

          k = 0.4000 0.0000 0.4000 (  1610 PWs)   bands (ev):

    -3.0622   2.5628   5.0360   6.0606  11.2401  12.6649  12.7418  14.2190
    15.9198  18.6819

          k = 0.0000 0.8000 0.0000 (  1624 PWs)   bands (ev):

    -1.8693   0.7873   4.9461   4.9461  10.6068  11.3703  16.2419  16.2419
    18.3909  19.6851

          k = 0.8000 0.0000 0.8000 (  1622 PWs)   bands (ev):

    -0.9515  -0.2737   4.3453   5.0091  11.0076  12.5377  16.2168  16.5134
    16.7870  17.8927

          k = 0.6000-0.2000 1.0000 (  1616 PWs)   bands (ev):

    -1.5759   0.4509   4.3999   4.9529  12.5109  12.6831  13.6057  15.9921
    16.7505  18.3363

     the Fermi energy is    -2.2271 ev

!    total energy              =     -16.94496313 Ry
     Harris-Foulkes estimate   =     -16.94496313 Ry
     estimated scf accuracy    <          9.8E-10 Ry

     The total energy is the sum of the following terms:

     one-electron contribution =       0.17669177 Ry
     hartree contribution      =       0.03022173 Ry
     xc contribution           =      -0.35232048 Ry
     ewald contribution        =     -16.79708774 Ry
     smearing contrib. (-TS)   =      -0.00246843 Ry

     convergence has been achieved in   5 iterations

     Forces acting on atoms (Ry/au):

     atom    1 type  1   force =     0.00000000    0.00000000    0.00000000
     atom    2 type  1   force =     0.00000000    0.00000000    0.00000000

     Total force =     0.000000     Total SCF correction =     0.000000


     entering subroutine stress ...

          total   stress  (Ry/bohr**3)                   (kbar)     P=-2654.92
  -0.01804777  -0.00000000  -0.00000000      -2654.92     -0.00     -0.00
  -0.00000000  -0.01804777   0.00000000         -0.00  -2654.92      0.00
  -0.00000000   0.00000000  -0.01804777         -0.00      0.00  -2654.92


     Writing output data file Si.save

     init_run     :      1.03s CPU      1.07s WALL (       1 calls)
     electrons    :      5.64s CPU      6.16s WALL (       1 calls)
     forces       :      0.06s CPU      0.06s WALL (       1 calls)
     stress       :      0.50s CPU      0.51s WALL (       1 calls)

     Called by init_run:
     wfcinit      :      0.80s CPU      0.80s WALL (       1 calls)
     potinit      :      0.04s CPU      0.04s WALL (       1 calls)

     Called by electrons:
     c_bands      :      4.35s CPU      4.73s WALL (       6 calls)
     sum_band     :      1.03s CPU      1.16s WALL (       6 calls)
     v_of_rho     :      0.27s CPU      0.28s WALL (       6 calls)
     mix_rho      :      0.02s CPU      0.02s WALL (       6 calls)

     Called by c_bands:
     init_us_2    :      0.22s CPU      0.25s WALL (     150 calls)
     cegterg      :      4.19s CPU      4.55s WALL (      60 calls)

     Called by *egterg:
     h_psi        :      4.45s CPU      4.78s WALL (     181 calls)
     g_psi        :      0.01s CPU      0.01s WALL (     111 calls)
     cdiaghg      :      0.05s CPU      0.05s WALL (     161 calls)

     Called by h_psi:
     add_vuspsi   :      0.14s CPU      0.14s WALL (     181 calls)

     General routines
     calbec       :      0.15s CPU      0.16s WALL (     201 calls)
     fft          :      0.13s CPU      0.14s WALL (      75 calls)
     fftw         :      4.70s CPU      5.11s WALL (    4062 calls)
     davcio       :      0.00s CPU      0.00s WALL (      10 calls)

     Parallel routines
     fft_scatter  :      0.12s CPU      0.14s WALL (    4137 calls)

     PWSCF        :     7.33s CPU         7.91s WALL


   This run was terminated on:  20:34:40  13Feb2023            

=------------------------------------------------------------------------------=
   JOB DONE.
=------------------------------------------------------------------------------=
