
     Program PWSCF v.5.1 starts on 13Feb2023 at 20:26:49 

     This program is part of the open-source Quantum ESPRESSO suite
     for quantum simulation of materials; please cite
         "P. Giannozzi et al., J. Phys.:Condens. Matter 21 395502 (2009);
          URL http://www.quantum-espresso.org", 
     in publications or presentations arising from this work. More details at
     http://www.quantum-espresso.org/quote

     Parallel version (MPI), running on     1 processors
     Waiting for input...
     Reading input from standard input

     Current dimensions of program PWSCF are:
     Max number of different atomic species (ntypx) = 10
     Max number of k-points (npk) =  40000
     Max angular momentum in pseudopotentials (lmaxx) =  3

     Atomic positions and unit cell read from directory:
     ./out/Si.save/

               file Si.pbe-mt_fhi.UPF: wavefunction(s)  4f renormalized

     Subspace diagonalization in iterative solution of the eigenvalue problem:
     a serial algorithm will be used


     G-vector sticks info
     --------------------
     sticks:   dense  smooth     PW     G-vecs:    dense   smooth      PW
     Sum         733     733    211                12939    12939    2109



     bravais-lattice index     =            2
     lattice parameter (alat)  =      10.2623  a.u.
     unit-cell volume          =     270.1967 (a.u.)^3
     number of atoms/cell      =            2
     number of atomic types    =            1
     number of electrons       =         7.00
     number of Kohn-Sham states=           10
     kinetic-energy cutoff     =      50.0000  Ry
     charge density cutoff     =     200.0000  Ry
     Exchange-correlation      = PBE ( 1  4  3  4 0)

     celldm(1)=  10.262347  celldm(2)=   0.000000  celldm(3)=   0.000000
     celldm(4)=   0.000000  celldm(5)=   0.000000  celldm(6)=   0.000000

     crystal axes: (cart. coord. in units of alat)
               a(1) = (  -0.500000   0.000000   0.500000 )  
               a(2) = (   0.000000   0.500000   0.500000 )  
               a(3) = (  -0.500000   0.500000   0.000000 )  

     reciprocal axes: (cart. coord. in units 2 pi/alat)
               b(1) = ( -1.000000 -1.000000  1.000000 )  
               b(2) = (  1.000000  1.000000  1.000000 )  
               b(3) = ( -1.000000  1.000000 -1.000000 )  


     PseudoPot. # 1 for Si read from file:
     /home/acedemo/psudo/Si.pbe-mt_fhi.UPF
     MD5 check sum: 259057c2adf9952f9ced37ae3d9e311d
     Pseudo is Norm-conserving, Zval =  4.0
     Generated using FHI98PP, converted with fhi2upf.x v.5.0.2
     Using radial grid of  495 points,  3 beta functions with: 
                l(1) =   0
                l(2) =   1
                l(3) =   3

     atomic species   valence    mass     pseudopotential
        Si             4.00    28.08550     Si( 1.00)

     48 Sym. Ops., with inversion, found (24 have fractional translation)



   Cartesian axes

     site n.     atom                  positions (alat units)
         1           Si  tau(   1) = (   0.0000000   0.0000000   0.0000000  )
         2           Si  tau(   2) = (   0.2500000   0.2500000   0.2500000  )

     number of k points=    51  Marzari-Vanderbilt smearing, width (Ry)=  0.0500
                       cart. coord. in units 2pi/alat
        k(    1) = (   0.5000000   0.5000000   0.5000000), wk =   0.0000000
        k(    2) = (   0.4500000   0.4500000   0.4500000), wk =   0.0014779
        k(    3) = (   0.4000000   0.4000000   0.4000000), wk =   0.0029558
        k(    4) = (   0.3500000   0.3500000   0.3500000), wk =   0.0044337
        k(    5) = (   0.3000000   0.3000000   0.3000000), wk =   0.0059116
        k(    6) = (   0.2500000   0.2500000   0.2500000), wk =   0.0073895
        k(    7) = (   0.2000000   0.2000000   0.2000000), wk =   0.0088674
        k(    8) = (   0.1500000   0.1500000   0.1500000), wk =   0.0103453
        k(    9) = (   0.1000000   0.1000000   0.1000000), wk =   0.0118232
        k(   10) = (   0.0500000   0.0500000   0.0500000), wk =   0.0133011
        k(   11) = (   0.0000000   0.0000000   0.0000000), wk =   0.0147790
        k(   12) = (   0.0000000   0.1000000   0.0000000), wk =   0.0168691
        k(   13) = (   0.0000000   0.2000000   0.0000000), wk =   0.0189591
        k(   14) = (   0.0000000   0.3000000   0.0000000), wk =   0.0210492
        k(   15) = (   0.0000000   0.4000000   0.0000000), wk =   0.0231392
        k(   16) = (   0.0000000   0.5000000   0.0000000), wk =   0.0252293
        k(   17) = (   0.0000000   0.6000000   0.0000000), wk =   0.0273194
        k(   18) = (   0.0000000   0.7000000   0.0000000), wk =   0.0294094
        k(   19) = (   0.0000000   0.8000000   0.0000000), wk =   0.0314995
        k(   20) = (   0.0000000   0.9000000   0.0000000), wk =   0.0335896
        k(   21) = (   0.0000000   1.0000000   0.0000000), wk =   0.0356796
        k(   22) = (   0.0000000   0.9750000   0.0750000), wk =   0.0370621
        k(   23) = (   0.0000000   0.9500000   0.1500000), wk =   0.0384445
        k(   24) = (  -0.0000000   0.9250000   0.2250000), wk =   0.0398270
        k(   25) = (  -0.0000000   0.9000000   0.3000000), wk =   0.0412094
        k(   26) = (   0.0000000   0.8750000   0.3750000), wk =   0.0425919
        k(   27) = (   0.0000000   0.8500000   0.4500000), wk =   0.0439743
        k(   28) = (   0.0000000   0.8250000   0.5250000), wk =   0.0453568
        k(   29) = (  -0.0000000   0.8000000   0.6000000), wk =   0.0467392
        k(   30) = (  -0.0000000   0.7750000   0.6750000), wk =   0.0481217
        k(   31) = (   0.0000000   0.7500000   0.7500000), wk =   0.0495041
        k(   32) = (   0.0000000   0.7250000   0.7750000), wk =   0.0500266
        k(   33) = (   0.0000000   0.7000000   0.8000000), wk =   0.0505491
        k(   34) = (   0.0000000   0.6750000   0.8250000), wk =   0.0510717
        k(   35) = (   0.0000000   0.6500000   0.8500000), wk =   0.0515942
        k(   36) = (   0.0000000   0.6250000   0.8750000), wk =   0.0521167
        k(   37) = (   0.0000000   0.6000000   0.9000000), wk =   0.0526392
        k(   38) = (   0.0000000   0.5750000   0.9250000), wk =   0.0531617
        k(   39) = (   0.0000000   0.5500000   0.9500000), wk =   0.0536842
        k(   40) = (   0.0000000   0.5250000   0.9750000), wk =   0.0542067
        k(   41) = (   0.0000000   0.5000000   1.0000000), wk =   0.0547293
        k(   42) = (   0.0000000   0.4500000   0.9000000), wk =   0.0574942
        k(   43) = (  -0.0000000   0.4000000   0.8000000), wk =   0.0602591
        k(   44) = (  -0.0000000   0.3500000   0.7000000), wk =   0.0630239
        k(   45) = (  -0.0000000   0.3000000   0.6000000), wk =   0.0657888
        k(   46) = (   0.0000000   0.2500000   0.5000000), wk =   0.0685537
        k(   47) = (   0.0000000   0.2000000   0.4000000), wk =   0.0713186
        k(   48) = (   0.0000000   0.1500000   0.3000000), wk =   0.0740835
        k(   49) = (  -0.0000000   0.1000000   0.2000000), wk =   0.0768484
        k(   50) = (  -0.0000000   0.0500000   0.1000000), wk =   0.0796133
        k(   51) = (   0.0000000   0.0000000   0.0000000), wk =   0.0823782

     Dense  grid:    12939 G-vectors     FFT dimensions: (  36,  36,  36)

     Largest allocated arrays     est. size (Mb)     dimensions
        Kohn-Sham Wavefunctions         0.25 Mb     (    1639,   10)
        NL pseudopotentials             0.55 Mb     (    1639,   22)
        Each V/rho on FFT grid          0.71 Mb     (   46656)
        Each G-vector array             0.10 Mb     (   12939)
        G-vector shells                 0.00 Mb     (     180)
     Largest temporary arrays     est. size (Mb)     dimensions
        Auxiliary wavefunctions         1.00 Mb     (    1639,   40)
        Each subspace H/S matrix        0.02 Mb     (      40,   40)
        Each <psi_i|beta_j> matrix      0.00 Mb     (      22,   10)

     The potential is recalculated from file :
     ./out/Si.save/charge-density.dat

     Starting wfc are   32 randomized atomic wfcs

     Band Structure Calculation
     Davidson diagonalization with overlap

     ethr =  2.29E-11,  avg # of iterations = 15.9

     total cpu time spent up to now is       28.1 secs

     End of band structure calculation

          k = 0.5000 0.5000 0.5000 (  1622 PWs)   bands (ev):

    -3.4188  -0.6108   4.9813   4.9813   7.8911   9.8488   9.8488  14.6501
    16.9518  16.9518

          k = 0.4500 0.4500 0.4500 (  1610 PWs)   bands (ev):

    -3.5424  -0.4267   4.9992   4.9992   7.9118   9.8650   9.8650  14.6692
    16.2831  16.2831

          k = 0.4000 0.4000 0.4000 (  1616 PWs)   bands (ev):

    -3.8403   0.0518   5.0526   5.0526   7.9734   9.9074   9.9074  14.6943
    15.4296  15.4296

          k = 0.3500 0.3500 0.3500 (  1610 PWs)   bands (ev):

    -4.2006   0.7110   5.1409   5.1409   8.0744   9.9555   9.9555  14.5470
    14.6816  14.6816

          k = 0.3000 0.3000 0.3000 (  1615 PWs)   bands (ev):

    -4.5581   1.4819   5.2622   5.2622   8.2116   9.9733   9.9733  13.9492
    14.0965  14.0965

          k = 0.2500 0.2500 0.2500 (  1618 PWs)   bands (ev):

    -4.8822   2.3275   5.4129   5.4129   8.3792   9.9147   9.9147  13.1015
    13.7243  13.7243

          k = 0.2000 0.2000 0.2000 (  1606 PWs)   bands (ev):

    -5.1578   3.2222   5.5863   5.5863   8.5674   9.7525   9.7525  12.1890
    13.5909  13.5909

          k = 0.1500 0.1500 0.1500 (  1600 PWs)   bands (ev):

    -5.3774   4.1383   5.7699   5.7699   8.7591   9.5100   9.5100  11.2659
    13.6658  13.6658

          k = 0.1000 0.1000 0.1000 (  1606 PWs)   bands (ev):

    -5.5365   5.0294   5.9425   5.9425   8.9258   9.2527   9.2527  10.3815
    13.8656  13.8656

          k = 0.0500 0.0500 0.0500 (  1630 PWs)   bands (ev):

    -5.6327   5.7837   6.0716   6.0716   9.0131   9.0557   9.0557   9.6660
    14.0753  14.0753

          k = 0.0000 0.0000 0.0000 (  1639 PWs)   bands (ev):

    -5.6650   6.1206   6.1206   6.1206   8.9815   8.9815   8.9815   9.4074
    14.1672  14.1672

          k = 0.0000 0.1000 0.0000 (  1627 PWs)   bands (ev):

    -5.6220   5.8391   5.9682   5.9682   8.8899   9.1872   9.1872   9.6791
    13.8840  14.2153

          k = 0.0000 0.2000 0.0000 (  1599 PWs)   bands (ev):

    -5.4933   5.1797   5.6071   5.6071   8.6489   9.7075   9.7075  10.2574
    13.2848  14.3598

          k = 0.0000 0.3000 0.0000 (  1607 PWs)   bands (ev):

    -5.2797   4.3679   5.1761   5.1761   8.3294  10.4013  10.4013  10.6500
    12.9134  14.6003

          k = 0.0000 0.4000 0.0000 (  1607 PWs)   bands (ev):

    -4.9824   3.5005   4.7508   4.7508   7.9958  10.3695  11.1902  11.1902
    13.3055  14.9368

          k = 0.0000 0.5000 0.0000 (  1612 PWs)   bands (ev):

    -4.6034   2.6147   4.3657   4.3657   7.6928   9.7225  12.0366  12.0366
    14.1790  15.3688

          k = 0.0000 0.6000 0.0000 (  1620 PWs)   bands (ev):

    -4.1454   1.7279   4.0381   4.0381   7.4487   9.0513  12.9219  12.9219
    15.1975  15.8959

          k = 0.0000 0.7000 0.0000 (  1632 PWs)   bands (ev):

    -3.6117   0.8518   3.7768   3.7768   7.2822   8.4584  13.8358  13.8358
    16.2509  16.5176

          k = 0.0000 0.8000 0.0000 (  1624 PWs)   bands (ev):

    -3.0067  -0.0027   3.5873   3.5873   7.2063   7.9750  14.7698  14.7698
    17.2329  17.2922

          k = 0.0000 0.9000 0.0000 (  1608 PWs)   bands (ev):

    -2.3360  -0.8254   3.4725   3.4725   7.2307   7.6100  15.6981  15.6981
    17.9391  17.9391

          k = 0.0000 1.0000 0.0000 (  1604 PWs)   bands (ev):

    -1.6063  -1.6063   3.4341   3.4341   7.3632   7.3632  16.3298  16.3298
    17.2951  17.2951

          k = 0.0000 0.9750 0.0750 (  1618 PWs)   bands (ev):

    -1.7854  -1.4102   3.3736   3.3797   7.4427   7.5339  15.9575  16.1539
    17.0164  17.2238

          k = 0.0000 0.9500 0.1500 (  1622 PWs)   bands (ev):

    -1.9398  -1.2092   3.2079   3.2523   7.7554   7.9233  14.9791  15.7544
    16.5282  17.3474

          k =-0.0000 0.9250 0.2250 (  1622 PWs)   bands (ev):

    -2.0648  -1.0201   2.9816   3.1170   8.2509   8.4794  13.8436  15.1611
    16.1394  17.4906

          k =-0.0000 0.9000 0.3000 (  1623 PWs)   bands (ev):

    -2.1580  -0.8641   2.7402   3.0327   8.8789   9.1577  12.6991  14.4699
    15.8336  17.4658

          k = 0.0000 0.8750 0.3750 (  1614 PWs)   bands (ev):

    -2.2183  -0.7616   2.5158   3.0401   9.6017   9.9209  11.5989  13.7630
    15.5532  17.2223

          k = 0.0000 0.8500 0.4500 (  1612 PWs)   bands (ev):

    -2.2457  -0.7234   2.3290   3.1544  10.3906  10.4023  10.9178  13.0777
    15.2740  16.8323

          k = 0.0000 0.8250 0.5250 (  1611 PWs)   bands (ev):

    -2.2410  -0.7453   2.1925   3.3596   9.5338  11.2054  11.7393  12.4509
    14.9879  16.3551

          k =-0.0000 0.8000 0.6000 (  1614 PWs)   bands (ev):

    -2.2051  -0.8121   2.1140   3.6059   8.7178  11.6119  12.3080  12.6935
    14.6962  15.8328

          k =-0.0000 0.7750 0.6750 (  1621 PWs)   bands (ev):

    -2.1389  -0.9071   2.0982   3.8053   8.1112  11.1369  13.1026  13.6812
    14.4140  15.3047

          k = 0.0000 0.7500 0.7500 (  1624 PWs)   bands (ev):

    -2.0430  -1.0183   2.1470   3.8411   7.8279  10.6251  13.8150  14.3122
    14.5082  14.9656

          k = 0.0000 0.7250 0.7750 (  1616 PWs)   bands (ev):

    -2.0373  -1.0211   2.1514   3.8103   7.8768  10.6290  13.6693  14.2864
    14.4571  15.1874

          k = 0.0000 0.7000 0.8000 (  1621 PWs)   bands (ev):

    -2.0200  -1.0300   2.1645   3.7230   8.0186  10.6406  13.4038  13.9299
    14.7205  15.5426

          k = 0.0000 0.6750 0.8250 (  1620 PWs)   bands (ev):

    -1.9911  -1.0455   2.1864   3.5922   8.2409  10.6596  13.1164  13.5592
    15.0044  15.9075

          k = 0.0000 0.6500 0.8500 (  1616 PWs)   bands (ev):

    -1.9508  -1.0689   2.2168   3.4336   8.5288  10.6857  12.8255  13.1895
    15.2906  16.2606

          k = 0.0000 0.6250 0.8750 (  1616 PWs)   bands (ev):

    -1.8990  -1.1016   2.2557   3.2624   8.8684  10.7180  12.5375  12.8252
    15.5732  16.5852

          k = 0.0000 0.6000 0.9000 (  1613 PWs)   bands (ev):

    -1.8357  -1.1456   2.3029   3.0910   9.2481  10.7551  12.2563  12.4690
    15.8493  16.8569

          k = 0.0000 0.5750 0.9250 (  1615 PWs)   bands (ev):

    -1.7610  -1.2028   2.3582   2.9294   9.6581  10.7941  11.9864  12.1236
    16.1162  17.0380

          k = 0.0000 0.5500 0.9500 (  1615 PWs)   bands (ev):

    -1.6750  -1.2750   2.4212   2.7851  10.0880  10.8288  11.7353  11.7946
    16.3715  17.0895

          k = 0.0000 0.5250 0.9750 (  1615 PWs)   bands (ev):

    -1.5776  -1.3635   2.4916   2.6637  10.5147  10.8435  11.5010  11.5195
    16.6118  17.0079

          k = 0.0000 0.5000 1.0000 (  1628 PWs)   bands (ev):

    -1.4691  -1.4691   2.5689   2.5689  10.8035  10.8035  11.3747  11.3747
    16.8319  16.8319

          k = 0.0000 0.4500 0.9000 (  1616 PWs)   bands (ev):

    -1.9881  -0.9688   2.3799   2.9329  10.3950  10.5218  11.0441  12.6118
    15.8213  17.1800

          k =-0.0000 0.4000 0.8000 (  1616 PWs)   bands (ev):

    -2.5946  -0.3816   2.4399   3.3654   9.8709  10.3410  10.8069  14.1745
    14.7382  16.4971

          k =-0.0000 0.3500 0.7000 (  1618 PWs)   bands (ev):

    -3.2239   0.2915   2.6989   3.8409   9.4444  10.2812  10.6460  13.6909
    15.6249  15.7847

          k =-0.0000 0.3000 0.6000 (  1609 PWs)   bands (ev):

    -3.8243   1.0488   3.1081   4.3280   9.1257  10.3125  10.5784  12.7142
    14.8309  17.1941

          k = 0.0000 0.2500 0.5000 (  1610 PWs)   bands (ev):

    -4.3634   1.8870   3.6282   4.7942   8.9158  10.2279  10.7722  11.8121
    14.1683  16.4683

          k = 0.0000 0.2000 0.4000 (  1613 PWs)   bands (ev):

    -4.8212   2.7996   4.2231   5.2140   8.8115  10.0117  10.9901  11.1548
    13.5889  15.1604

          k = 0.0000 0.1500 0.3000 (  1607 PWs)   bands (ev):

    -5.1861   3.7723   4.8513   5.5722   8.8019   9.7238  10.2563  11.3544
    13.0926  14.4333

          k =-0.0000 0.1000 0.2000 (  1600 PWs)   bands (ev):

    -5.4509   4.7688   5.4526   5.8578   8.8619   9.4202   9.6298  10.7161
    13.3065  14.2076

          k =-0.0000 0.0500 0.1000 (  1623 PWs)   bands (ev):

    -5.6113   5.6769   5.9278   6.0507   8.9432   9.1555   9.1655   9.8004
    13.8772  14.1677

          k = 0.0000 0.0000 0.0000 (  1639 PWs)   bands (ev):

    -5.6650   6.1206   6.1206   6.1206   8.9815   8.9815   8.9815   9.4074
    14.1672  14.1672

     Writing output data file Si.save

     init_run     :      0.14s CPU      0.15s WALL (       1 calls)
     electrons    :     25.23s CPU     26.61s WALL (       1 calls)

     Called by init_run:
     wfcinit      :      0.00s CPU      0.00s WALL (       1 calls)
     potinit      :      0.03s CPU      0.04s WALL (       1 calls)

     Called by electrons:
     c_bands      :     25.23s CPU     26.60s WALL (       1 calls)
     v_of_rho     :      0.03s CPU      0.03s WALL (       1 calls)

     Called by c_bands:
     init_us_2    :      0.09s CPU      0.09s WALL (      51 calls)
     cegterg      :     19.57s CPU     20.72s WALL (      55 calls)

     Called by *egterg:
     h_psi        :     21.10s CPU     22.26s WALL (     915 calls)
     g_psi        :      0.05s CPU      0.05s WALL (     809 calls)
     cdiaghg      :      0.41s CPU      0.43s WALL (     860 calls)

     Called by h_psi:
     add_vuspsi   :      0.61s CPU      0.65s WALL (     915 calls)

     General routines
     calbec       :      0.69s CPU      0.71s WALL (     915 calls)
     fft          :      0.02s CPU      0.02s WALL (      10 calls)
     fftw         :     18.69s CPU     19.74s WALL (   14582 calls)
     davcio       :      0.00s CPU      0.00s WALL (      51 calls)

     Parallel routines
     fft_scatter  :      0.46s CPU      0.47s WALL (   14592 calls)

     PWSCF        :    26.62s CPU        28.23s WALL


   This run was terminated on:  20:27:18  13Feb2023            

=------------------------------------------------------------------------------=
   JOB DONE.
=------------------------------------------------------------------------------=
