
     Program PWSCF v.5.1 starts on 13Feb2023 at 20:26: 4 

     This program is part of the open-source Quantum ESPRESSO suite
     for quantum simulation of materials; please cite
         "P. Giannozzi et al., J. Phys.:Condens. Matter 21 395502 (2009);
          URL http://www.quantum-espresso.org", 
     in publications or presentations arising from this work. More details at
     http://www.quantum-espresso.org/quote

     Parallel version (MPI), running on     1 processors
     Waiting for input...
     Reading input from standard input

     Current dimensions of program PWSCF are:
     Max number of different atomic species (ntypx) = 10
     Max number of k-points (npk) =  40000
     Max angular momentum in pseudopotentials (lmaxx) =  3

     Atomic positions and unit cell read from directory:
     ./out/Si.save/

               file Si.pbe-mt_fhi.UPF: wavefunction(s)  4f renormalized

     Subspace diagonalization in iterative solution of the eigenvalue problem:
     a serial algorithm will be used


     G-vector sticks info
     --------------------
     sticks:   dense  smooth     PW     G-vecs:    dense   smooth      PW
     Sum         733     733    223                12939    12939    2229



     bravais-lattice index     =            2
     lattice parameter (alat)  =      10.2623  a.u.
     unit-cell volume          =     270.1967 (a.u.)^3
     number of atoms/cell      =            2
     number of atomic types    =            1
     number of electrons       =         7.00
     number of Kohn-Sham states=           10
     kinetic-energy cutoff     =      50.0000  Ry
     charge density cutoff     =     200.0000  Ry
     Exchange-correlation      = PBE ( 1  4  3  4 0)

     celldm(1)=  10.262347  celldm(2)=   0.000000  celldm(3)=   0.000000
     celldm(4)=   0.000000  celldm(5)=   0.000000  celldm(6)=   0.000000

     crystal axes: (cart. coord. in units of alat)
               a(1) = (  -0.500000   0.000000   0.500000 )  
               a(2) = (   0.000000   0.500000   0.500000 )  
               a(3) = (  -0.500000   0.500000   0.000000 )  

     reciprocal axes: (cart. coord. in units 2 pi/alat)
               b(1) = ( -1.000000 -1.000000  1.000000 )  
               b(2) = (  1.000000  1.000000  1.000000 )  
               b(3) = ( -1.000000  1.000000 -1.000000 )  


     PseudoPot. # 1 for Si read from file:
     /home/acedemo/psudo/Si.pbe-mt_fhi.UPF
     MD5 check sum: 259057c2adf9952f9ced37ae3d9e311d
     Pseudo is Norm-conserving, Zval =  4.0
     Generated using FHI98PP, converted with fhi2upf.x v.5.0.2
     Using radial grid of  495 points,  3 beta functions with: 
                l(1) =   0
                l(2) =   1
                l(3) =   3

     atomic species   valence    mass     pseudopotential
        Si             4.00    28.08550     Si( 1.00)

     48 Sym. Ops., with inversion, found (24 have fractional translation)



   Cartesian axes

     site n.     atom                  positions (alat units)
         1           Si  tau(   1) = (   0.0000000   0.0000000   0.0000000  )
         2           Si  tau(   2) = (   0.2500000   0.2500000   0.2500000  )

     number of k points=    72 (tetrahedron method)
                       cart. coord. in units 2pi/alat
        k(    1) = (   0.0000000   0.0000000   0.0000000), wk =   0.0011574
        k(    2) = (  -0.0833333   0.0833333  -0.0833333), wk =   0.0092593
        k(    3) = (  -0.1666667   0.1666667  -0.1666667), wk =   0.0092593
        k(    4) = (  -0.2500000   0.2500000  -0.2500000), wk =   0.0092593
        k(    5) = (  -0.3333333   0.3333333  -0.3333333), wk =   0.0092593
        k(    6) = (  -0.4166667   0.4166667  -0.4166667), wk =   0.0092593
        k(    7) = (   0.5000000  -0.5000000   0.5000000), wk =   0.0046296
        k(    8) = (   0.0000000   0.1666667   0.0000000), wk =   0.0069444
        k(    9) = (  -0.0833333   0.2500000  -0.0833333), wk =   0.0277778
        k(   10) = (  -0.1666667   0.3333333  -0.1666667), wk =   0.0277778
        k(   11) = (  -0.2500000   0.4166667  -0.2500000), wk =   0.0277778
        k(   12) = (  -0.3333333   0.5000000  -0.3333333), wk =   0.0277778
        k(   13) = (   0.5833333  -0.4166667   0.5833333), wk =   0.0277778
        k(   14) = (   0.5000000  -0.3333333   0.5000000), wk =   0.0277778
        k(   15) = (   0.4166667  -0.2500000   0.4166667), wk =   0.0277778
        k(   16) = (   0.3333333  -0.1666667   0.3333333), wk =   0.0277778
        k(   17) = (   0.2500000  -0.0833333   0.2500000), wk =   0.0277778
        k(   18) = (   0.1666667  -0.0000000   0.1666667), wk =   0.0138889
        k(   19) = (   0.0000000   0.3333333   0.0000000), wk =   0.0069444
        k(   20) = (  -0.0833333   0.4166667  -0.0833333), wk =   0.0277778
        k(   21) = (  -0.1666667   0.5000000  -0.1666667), wk =   0.0277778
        k(   22) = (  -0.2500000   0.5833333  -0.2500000), wk =   0.0277778
        k(   23) = (   0.6666667  -0.3333333   0.6666667), wk =   0.0277778
        k(   24) = (   0.5833333  -0.2500000   0.5833333), wk =   0.0277778
        k(   25) = (   0.5000000  -0.1666667   0.5000000), wk =   0.0277778
        k(   26) = (   0.4166667  -0.0833333   0.4166667), wk =   0.0277778
        k(   27) = (   0.3333333   0.0000000   0.3333333), wk =   0.0138889
        k(   28) = (   0.0000000   0.5000000   0.0000000), wk =   0.0069444
        k(   29) = (  -0.0833333   0.5833333  -0.0833333), wk =   0.0277778
        k(   30) = (  -0.1666667   0.6666667  -0.1666667), wk =   0.0277778
        k(   31) = (   0.7500000  -0.2500000   0.7500000), wk =   0.0277778
        k(   32) = (   0.6666667  -0.1666667   0.6666667), wk =   0.0277778
        k(   33) = (   0.5833333  -0.0833333   0.5833333), wk =   0.0277778
        k(   34) = (   0.5000000   0.0000000   0.5000000), wk =   0.0138889
        k(   35) = (   0.0000000   0.6666667   0.0000000), wk =   0.0069444
        k(   36) = (  -0.0833333   0.7500000  -0.0833333), wk =   0.0277778
        k(   37) = (   0.8333333  -0.1666667   0.8333333), wk =   0.0277778
        k(   38) = (   0.7500000  -0.0833333   0.7500000), wk =   0.0277778
        k(   39) = (   0.6666667   0.0000000   0.6666667), wk =   0.0138889
        k(   40) = (   0.0000000   0.8333333   0.0000000), wk =   0.0069444
        k(   41) = (   0.9166667  -0.0833333   0.9166667), wk =   0.0277778
        k(   42) = (   0.8333333   0.0000000   0.8333333), wk =   0.0138889
        k(   43) = (   0.0000000  -1.0000000   0.0000000), wk =   0.0034722
        k(   44) = (  -0.1666667   0.3333333   0.0000000), wk =   0.0277778
        k(   45) = (  -0.2500000   0.4166667  -0.0833333), wk =   0.0555556
        k(   46) = (  -0.3333333   0.5000000  -0.1666667), wk =   0.0555556
        k(   47) = (   0.5833333  -0.4166667   0.7500000), wk =   0.0555556
        k(   48) = (   0.5000000  -0.3333333   0.6666667), wk =   0.0277778
        k(   49) = (  -0.1666667   0.5000000   0.0000000), wk =   0.0277778
        k(   50) = (  -0.2500000   0.5833333  -0.0833333), wk =   0.0555556
        k(   51) = (   0.6666667  -0.3333333   0.8333333), wk =   0.0555556
        k(   52) = (   0.5833333  -0.2500000   0.7500000), wk =   0.0555556
        k(   53) = (   0.5000000  -0.1666667   0.6666667), wk =   0.0555556
        k(   54) = (   0.4166667  -0.0833333   0.5833333), wk =   0.0555556
        k(   55) = (   0.3333333   0.0000000   0.5000000), wk =   0.0277778
        k(   56) = (  -0.1666667   0.6666667  -0.0000000), wk =   0.0277778
        k(   57) = (   0.7500000  -0.2500000   0.9166667), wk =   0.0555556
        k(   58) = (   0.6666667  -0.1666667   0.8333333), wk =   0.0555556
        k(   59) = (   0.5833333  -0.0833333   0.7500000), wk =   0.0555556
        k(   60) = (   0.5000000   0.0000000   0.6666667), wk =   0.0277778
        k(   61) = (   0.8333333  -0.1666667   1.0000000), wk =   0.0277778
        k(   62) = (   0.7500000  -0.0833333   0.9166667), wk =   0.0555556
        k(   63) = (   0.6666667   0.0000000   0.8333333), wk =   0.0277778
        k(   64) = (  -0.1666667  -1.0000000   0.0000000), wk =   0.0138889
        k(   65) = (   0.6666667  -0.3333333   1.0000000), wk =   0.0277778
        k(   66) = (   0.5833333  -0.2500000   0.9166667), wk =   0.0555556
        k(   67) = (   0.5000000  -0.1666667   0.8333333), wk =   0.0277778
        k(   68) = (   0.6666667  -0.1666667   1.0000000), wk =   0.0277778
        k(   69) = (   0.5833333  -0.0833333   0.9166667), wk =   0.0555556
        k(   70) = (   0.5000000   0.0000000   0.8333333), wk =   0.0277778
        k(   71) = (  -0.3333333  -1.0000000   0.0000000), wk =   0.0138889
        k(   72) = (  -0.5000000  -1.0000000   0.0000000), wk =   0.0069444

     Dense  grid:    12939 G-vectors     FFT dimensions: (  36,  36,  36)

     Largest allocated arrays     est. size (Mb)     dimensions
        Kohn-Sham Wavefunctions         0.25 Mb     (    1639,   10)
        NL pseudopotentials             0.55 Mb     (    1639,   22)
        Each V/rho on FFT grid          0.71 Mb     (   46656)
        Each G-vector array             0.10 Mb     (   12939)
        G-vector shells                 0.00 Mb     (     180)
     Largest temporary arrays     est. size (Mb)     dimensions
        Auxiliary wavefunctions         1.00 Mb     (    1639,   40)
        Each subspace H/S matrix        0.02 Mb     (      40,   40)
        Each <psi_i|beta_j> matrix      0.00 Mb     (      22,   10)

     The potential is recalculated from file :
     ./out/Si.save/charge-density.dat

     Starting wfc are   32 randomized atomic wfcs

     Band Structure Calculation
     Davidson diagonalization with overlap

     ethr =  2.29E-11,  avg # of iterations = 17.8

     total cpu time spent up to now is       36.2 secs

     End of band structure calculation

          k = 0.0000 0.0000 0.0000 (  1639 PWs)   bands (ev):

    -5.6650   6.1206   6.1206   6.1206   8.9815   8.9815   8.9815   9.4074
    14.1672  14.1672

          k =-0.0833 0.0833-0.0833 (  1612 PWs)   bands (ev):

    -5.5756   5.3052   5.9923   5.9923   8.9678   9.1768   9.1768  10.1127
    13.9408  13.9408

          k =-0.1667 0.1667-0.1667 (  1591 PWs)   bands (ev):

    -5.3107   3.8328   5.7086   5.7086   8.6962   9.5962   9.5962  11.5724
    13.6220  13.6220

          k =-0.2500 0.2500-0.2500 (  1618 PWs)   bands (ev):

    -4.8822   2.3275   5.4129   5.4129   8.3792   9.9147   9.9147  13.1015
    13.7243  13.7243

          k =-0.3333 0.3333-0.3333 (  1616 PWs)   bands (ev):

    -4.3221   0.9578   5.1778   5.1778   8.1163   9.9671   9.9671  14.3969
    14.4659  14.4659

          k =-0.4167 0.4167-0.4167 (  1616 PWs)   bands (ev):

    -3.7294  -0.1326   5.0309   5.0309   7.9484   9.8913   9.8913  14.6911
    15.7059  15.7059

          k = 0.5000-0.5000 0.5000 (  1622 PWs)   bands (ev):

    -3.4188  -0.6108   4.9813   4.9813   7.8911   9.8488   9.8488  14.6501
    16.9518  16.9518

          k = 0.0000 0.1667 0.0000 (  1615 PWs)   bands (ev):

    -5.5457   5.4244   5.7409   5.7409   8.7416   9.5090   9.5090  10.0569
    13.4906  14.3009

          k =-0.0833 0.2500-0.0833 (  1599 PWs)   bands (ev):

    -5.3387   4.2496   5.4031   5.5653   8.7582   9.5302  10.0235  11.0944
    13.1208  14.2758

          k =-0.1667 0.3333-0.1667 (  1610 PWs)   bands (ev):

    -4.9630   2.7965   5.1023   5.2624   8.8250   9.5736  10.4230  11.8587
    13.6656  14.3533

          k =-0.2500 0.4167-0.2500 (  1606 PWs)   bands (ev):

    -4.4412   1.4014   4.8947   4.9262   8.6496   9.7382  10.4989  12.4697
    14.9742  14.9792

          k =-0.3333 0.5000-0.3333 (  1616 PWs)   bands (ev):

    -3.8393   0.2112   4.6426   4.8003   8.4772   9.7598  10.3529  13.5108
    15.5318  16.1252

          k = 0.5833-0.4167 0.5833 (  1615 PWs)   bands (ev):

    -3.3788  -0.5212   4.4483   4.8221   8.3925   9.7818  10.1815  14.6104
    15.6121  16.9107

          k = 0.5000-0.3333 0.5000 (  1616 PWs)   bands (ev):

    -3.4907  -0.3538   4.3625   4.9530   8.4145   9.8930  10.0773  14.7696
    15.3957  15.9447

          k = 0.4167-0.2500 0.4167 (  1611 PWs)   bands (ev):

    -4.0421   0.5779   4.3972   5.1784   8.5428  10.0274  10.0709  13.9527
    14.0632  15.8880

          k = 0.3333-0.1667 0.3333 (  1605 PWs)   bands (ev):

    -4.6300   1.8520   4.5606   5.4718   8.7640   9.9065  10.1629  12.8957
    13.2092  15.3379

          k = 0.2500-0.0833 0.2500 (  1600 PWs)   bands (ev):

    -5.1069   3.2661   4.8619   5.7821   9.0411   9.5823   9.8967  11.9899
    13.0184  14.3390

          k = 0.1667-0.0000 0.1667 (  1592 PWs)   bands (ev):

    -5.4275   4.5769   5.3571   6.0037   9.2287   9.2433   9.3497  10.9488
    13.3740  14.0596

          k = 0.0000 0.3333 0.0000 (  1607 PWs)   bands (ev):

    -5.1898   4.0824   5.0314   5.0314   8.2172  10.6322  10.6561  10.6561
    12.9566  14.7018

          k =-0.0833 0.4167-0.0833 (  1616 PWs)   bands (ev):

    -4.8692   3.0365   4.6978   4.7112   8.2322  10.3125  11.0848  11.2169
    13.7809  14.9419

          k =-0.1667 0.5000-0.1667 (  1611 PWs)   bands (ev):

    -4.3928   1.7758   4.2701   4.4969   8.4675  10.4384  11.0050  11.4282
    15.2855  15.5082

          k =-0.2500 0.5833-0.2500 (  1610 PWs)   bands (ev):

    -3.8046   0.5869   3.8505   4.4098   8.5267  10.5839  11.3029  11.5592
    16.5852  16.5879

          k = 0.6667-0.3333 0.6667 (  1607 PWs)   bands (ev):

    -3.2510  -0.3037   3.5218   4.4545   8.5548  10.4852  11.0666  12.8735
    16.0601  16.8762

          k = 0.5833-0.2500 0.5833 (  1602 PWs)   bands (ev):

    -3.1457  -0.4526   3.3223   4.6238   8.6759  10.4620  10.8556  14.4208
    15.0102  15.2256

          k = 0.5000-0.1667 0.5000 (  1610 PWs)   bands (ev):

    -3.6160   0.2668   3.2797   4.8991   8.9002  10.5311  10.6812  13.6842
    13.8216  15.9239

          k = 0.4167-0.0833 0.4167 (  1613 PWs)   bands (ev):

    -4.2174   1.3662   3.4377   5.2430   9.1806  10.4219  10.5703  12.5347
    12.9123  16.9425

          k = 0.3333 0.0000 0.3333 (  1604 PWs)   bands (ev):

    -4.7352   2.4725   3.9200   5.5817   9.3814   9.9667  10.2098  12.0646
    12.6954  15.6408

          k = 0.0000 0.5000 0.0000 (  1612 PWs)   bands (ev):

    -4.6034   2.6147   4.3657   4.3657   7.6928   9.7225  12.0366  12.0366
    14.1790  15.3688

          k =-0.0833 0.5833-0.0833 (  1617 PWs)   bands (ev):

    -4.1763   1.7261   3.9378   4.1267   7.7709   9.3889  12.3208  12.5384
    15.4437  15.9211

          k =-0.1667 0.6667-0.1667 (  1620 PWs)   bands (ev):

    -3.6170   0.7318   3.3528   4.0196   8.0081   9.8050  12.1916  12.5534
    16.9727  17.1069

          k = 0.7500-0.2500 0.7500 (  1617 PWs)   bands (ev):

    -3.0188  -0.1531   2.8360   4.0522   8.1115  10.9556  12.0262  12.3192
    16.6193  16.9290

          k = 0.6667-0.1667 0.6667 (  1607 PWs)   bands (ev):

    -2.7182  -0.5394   2.4938   4.2201   8.2802  11.8473  12.0410  12.5478
    15.1111  15.2091

          k = 0.5833-0.0833 0.5833 (  1611 PWs)   bands (ev):

    -3.0740  -0.0737   2.3921   4.5063   8.5739  11.7314  11.8012  13.5461
    13.7903  14.3062

          k = 0.5000 0.0000 0.5000 (  1604 PWs)   bands (ev):

    -3.6717   0.7207   2.6541   4.8733   8.9449  11.1829  11.4908  12.5253
    12.9997  16.0398

          k = 0.0000 0.6667 0.0000 (  1624 PWs)   bands (ev):

    -3.7977   1.1420   3.8561   3.8561   7.3282   8.6447  13.5285  13.5285
    15.8993  16.2999

          k =-0.0833 0.7500-0.0833 (  1618 PWs)   bands (ev):

    -3.2757   0.3702   3.4201   3.7168   7.4893   8.4923  13.8475  13.9346
    17.1749  17.1996

          k = 0.8333-0.1667 0.8333 (  1619 PWs)   bands (ev):

    -2.6674  -0.3813   2.7609   3.7200   7.6876   9.2637  13.7481  13.8041
    16.9292  17.0738

          k = 0.7500-0.0833 0.7500 (  1620 PWs)   bands (ev):

    -2.2280  -0.8488   2.2279   3.8649   7.8607  10.6615  13.4721  13.5966
    15.2212  15.3629

          k = 0.6667 0.0000 0.6667 (  1612 PWs)   bands (ev):

    -2.4967  -0.5636   2.0406   4.1379   8.1641  12.2919  12.8438  13.3531
    13.7373  14.1585

          k = 0.0000 0.8333 0.0000 (  1628 PWs)   bands (ev):

    -2.7902  -0.2810   3.5406   3.5406   7.2029   7.8401  15.0827  15.0827
    17.4920  17.6308

          k = 0.9167-0.0833 0.9167 (  1622 PWs)   bands (ev):

    -2.1924  -0.9565   3.1617   3.5070   7.4133   7.9546  15.3648  15.4246
    17.1437  17.2484

          k = 0.8333 0.0000 0.8333 (  1614 PWs)   bands (ev):

    -1.7652  -1.3445   2.5631   3.6183   7.5737   9.0829  14.8408  15.3058
    15.4248  15.8659

          k = 0.0000-1.0000 0.0000 (  1604 PWs)   bands (ev):

    -1.6063  -1.6063   3.4341   3.4341   7.3632   7.3632  16.3298  16.3298
    17.2951  17.2951

          k =-0.1667 0.3333 0.0000 (  1603 PWs)   bands (ev):

    -5.0753   3.4429   4.6413   5.4603   8.7957   9.8247  10.4903  11.3563
    13.2149  14.6027

          k =-0.2500 0.4167-0.0833 (  1607 PWs)   bands (ev):

    -4.6489   2.2402   4.1288   5.2034   9.0526   9.8367  10.9195  11.4359
    13.7273  15.5889

          k =-0.3333 0.5000-0.1667 (  1604 PWs)   bands (ev):

    -4.0903   0.9852   3.8554   4.8977   9.0578   9.8353  11.0079  12.0478
    14.6125  16.6126

          k = 0.5833-0.4167 0.7500 (  1612 PWs)   bands (ev):

    -3.4956  -0.0607   3.7222   4.6671   8.9760   9.7294  10.9496  13.2224
    15.6804  16.0603

          k = 0.5000-0.3333 0.6667 (  1602 PWs)   bands (ev):

    -3.1802  -0.5306   3.6839   4.5815   8.9423   9.6729  10.9114  14.5896
    14.6951  16.5174

          k =-0.1667 0.5000 0.0000 (  1617 PWs)   bands (ev):

    -4.4962   2.2397   3.9784   4.6080   8.2966  10.0641  11.1707  11.9312
    14.4508  15.7451

          k =-0.2500 0.5833-0.0833 (  1611 PWs)   bands (ev):

    -3.9774   1.2203   3.4668   4.3432   8.6297  10.2772  10.9340  12.3377
    15.2044  17.2590

          k = 0.6667-0.3333 0.8333 (  1617 PWs)   bands (ev):

    -3.3744   0.2107   3.1166   4.1480   8.7685  10.6311  11.2714  12.3474
    16.3003  16.4167

          k = 0.5833-0.2500 0.7500 (  1607 PWs)   bands (ev):

    -2.9064  -0.4555   2.8788   4.1302   8.8901  10.3776  12.2479  12.7165
    14.6919  17.0215

          k = 0.5000-0.1667 0.6667 (  1605 PWs)   bands (ev):

    -3.0341  -0.2793   2.7732   4.2902   9.1125  10.2082  12.1610  13.1115
    14.3943  15.7045

          k = 0.4167-0.0833 0.5833 (  1610 PWs)   bands (ev):

    -3.5963   0.5529   2.8613   4.5844   9.4232  10.0675  11.7416  12.1419
    14.4183  16.0901

          k = 0.3333 0.0000 0.5000 (  1606 PWs)   bands (ev):

    -4.1798   1.5009   3.2694   4.9365   9.6478   9.7352  11.2191  11.6669
    13.7334  17.3379

          k =-0.1667 0.6667-0.0000 (  1626 PWs)   bands (ev):

    -3.7032   0.9732   3.4876   3.8785   7.9375   9.0959  12.3764  13.4831
    15.9124  17.2683

          k = 0.7500-0.2500 0.9167 (  1621 PWs)   bands (ev):

    -3.1157   0.1561   2.9468   3.6800   8.2853   9.5632  12.1105  13.8674
    16.6063  16.8554

          k = 0.6667-0.1667 0.8333 (  1616 PWs)   bands (ev):

    -2.5540  -0.5288   2.4618   3.6864   8.4480  10.8089  11.8352  13.8122
    14.8404  17.2325

          k = 0.5833-0.0833 0.7500 (  1614 PWs)   bands (ev):

    -2.4929  -0.5910   2.1951   3.8722   8.6892  11.4966  12.4852  13.1174
    13.7338  15.7186

          k = 0.5000 0.0000 0.6667 (  1621 PWs)   bands (ev):

    -3.0071  -0.0191   2.2808   4.1946   9.0473  11.0633  11.9593  13.1803
    14.3264  14.6257

          k = 0.8333-0.1667 1.0000 (  1617 PWs)   bands (ev):

    -2.7180  -0.3211   3.2127   3.3954   7.7984   8.3539  13.7563  15.0759
    16.9395  17.3963

          k = 0.7500-0.0833 0.9167 (  1620 PWs)   bands (ev):

    -2.1115  -0.9528   2.6501   3.3555   8.1036   9.1810  13.4689  14.9234
    15.5877  17.2564

          k = 0.6667 0.0000 0.8333 (  1620 PWs)   bands (ev):

    -1.9790  -1.0523   2.1956   3.5416   8.3303  10.6676  13.0194  13.4356
    15.0999  16.0273

          k =-0.1667-1.0000 0.0000 (  1622 PWs)   bands (ev):

    -1.5739  -1.5739   3.1767   3.1767   7.9262   7.9262  15.2206  15.2206
    16.8786  16.8786

          k = 0.6667-0.3333 1.0000 (  1610 PWs)   bands (ev):

    -3.4292   0.5347   2.8208   4.0037   9.3260  10.2878  10.6081  13.3575
    15.3472  16.2984

          k = 0.5833-0.2500 0.9167 (  1611 PWs)   bands (ev):

    -2.8289  -0.2126   2.4887   3.6954   9.7245  10.2312  11.2039  13.7973
    14.4895  16.2929

          k = 0.5000-0.1667 0.8333 (  1610 PWs)   bands (ev):

    -2.4891  -0.6174   2.3956   3.5761   9.9069   9.9705  12.5554  12.9052
    13.8642  17.4183

          k = 0.6667-0.1667 1.0000 (  1618 PWs)   bands (ev):

    -2.5187  -0.4668   2.6333   3.2168   9.1868   9.6402  11.7652  14.6642
    15.1448  17.0151

          k = 0.5833-0.0833 0.9167 (  1615 PWs)   bands (ev):

    -2.0194  -0.9611   2.3479   3.0742   9.5423  10.7992  11.4951  12.8916
    15.5036  17.3812

          k = 0.5000 0.0000 0.8333 (  1612 PWs)   bands (ev):

    -2.2461  -0.7321   2.2318   3.2835   9.8339  10.9363  11.4363  12.6484
    15.0841  16.5211

          k =-0.3333-1.0000 0.0000 (  1618 PWs)   bands (ev):

    -1.5055  -1.5055   2.7530   2.7530   9.2804   9.2804  13.1412  13.1412
    16.8322  16.8322

          k =-0.5000-1.0000 0.0000 (  1628 PWs)   bands (ev):

    -1.4691  -1.4691   2.5689   2.5689  10.8035  10.8035  11.3747  11.3747
    16.8319  16.8319

     the Fermi energy is     4.5764 ev

     Writing output data file Si.save

     init_run     :      0.17s CPU      0.18s WALL (       1 calls)
     electrons    :     34.24s CPU     35.51s WALL (       1 calls)

     Called by init_run:
     wfcinit      :      0.00s CPU      0.00s WALL (       1 calls)
     potinit      :      0.04s CPU      0.04s WALL (       1 calls)

     Called by electrons:
     c_bands      :     34.14s CPU     35.40s WALL (       1 calls)
     v_of_rho     :      0.03s CPU      0.03s WALL (       1 calls)

     Called by c_bands:
     init_us_2    :      0.10s CPU      0.11s WALL (      72 calls)
     cegterg      :     26.30s CPU     27.33s WALL (      84 calls)

     Called by *egterg:
     h_psi        :     28.67s CPU     29.78s WALL (    1434 calls)
     g_psi        :      0.07s CPU      0.07s WALL (    1278 calls)
     cdiaghg      :      0.57s CPU      0.58s WALL (    1350 calls)

     Called by h_psi:
     add_vuspsi   :      0.80s CPU      0.84s WALL (    1434 calls)

     General routines
     calbec       :      0.90s CPU      0.94s WALL (    1434 calls)
     fft          :      0.01s CPU      0.02s WALL (      10 calls)
     fftw         :     25.52s CPU     26.46s WALL (   21288 calls)
     davcio       :      0.00s CPU      0.01s WALL (      72 calls)

     Parallel routines
     fft_scatter  :      0.64s CPU      0.65s WALL (   21298 calls)

     PWSCF        :    36.17s CPU        37.48s WALL


   This run was terminated on:  20:26:41  13Feb2023            

=------------------------------------------------------------------------------=
   JOB DONE.
=------------------------------------------------------------------------------=
