
     Program PWSCF v.5.1 starts on 13Feb2023 at 20:24:39 

     This program is part of the open-source Quantum ESPRESSO suite
     for quantum simulation of materials; please cite
         "P. Giannozzi et al., J. Phys.:Condens. Matter 21 395502 (2009);
          URL http://www.quantum-espresso.org", 
     in publications or presentations arising from this work. More details at
     http://www.quantum-espresso.org/quote

     Parallel version (MPI), running on     1 processors
     Waiting for input...
     Reading input from standard input

     Current dimensions of program PWSCF are:
     Max number of different atomic species (ntypx) = 10
     Max number of k-points (npk) =  40000
     Max angular momentum in pseudopotentials (lmaxx) =  3
               file Si.pbe-mt_fhi.UPF: wavefunction(s)  4f renormalized

     Subspace diagonalization in iterative solution of the eigenvalue problem:
     a serial algorithm will be used


     G-vector sticks info
     --------------------
     sticks:   dense  smooth     PW     G-vecs:    dense   smooth      PW
     Sum         733     733    211                12939    12939    2109



     bravais-lattice index     =            2
     lattice parameter (alat)  =      10.2623  a.u.
     unit-cell volume          =     270.1967 (a.u.)^3
     number of atoms/cell      =            2
     number of atomic types    =            1
     number of electrons       =         7.00
     number of Kohn-Sham states=           10
     kinetic-energy cutoff     =      50.0000  Ry
     charge density cutoff     =     200.0000  Ry
     convergence threshold     =      1.6E-09
     mixing beta               =       0.3000
     number of iterations used =            8  plain     mixing
     Exchange-correlation      = PBE ( 1  4  3  4 0)

     celldm(1)=  10.262347  celldm(2)=   0.000000  celldm(3)=   0.000000
     celldm(4)=   0.000000  celldm(5)=   0.000000  celldm(6)=   0.000000

     crystal axes: (cart. coord. in units of alat)
               a(1) = (  -0.500000   0.000000   0.500000 )  
               a(2) = (   0.000000   0.500000   0.500000 )  
               a(3) = (  -0.500000   0.500000   0.000000 )  

     reciprocal axes: (cart. coord. in units 2 pi/alat)
               b(1) = ( -1.000000 -1.000000  1.000000 )  
               b(2) = (  1.000000  1.000000  1.000000 )  
               b(3) = ( -1.000000  1.000000 -1.000000 )  


     PseudoPot. # 1 for Si read from file:
     /home/acedemo/psudo/Si.pbe-mt_fhi.UPF
     MD5 check sum: 259057c2adf9952f9ced37ae3d9e311d
     Pseudo is Norm-conserving, Zval =  4.0
     Generated using FHI98PP, converted with fhi2upf.x v.5.0.2
     Using radial grid of  495 points,  3 beta functions with: 
                l(1) =   0
                l(2) =   1
                l(3) =   3

     atomic species   valence    mass     pseudopotential
        Si             4.00    28.08550     Si( 1.00)

     48 Sym. Ops., with inversion, found (24 have fractional translation)



   Cartesian axes

     site n.     atom                  positions (alat units)
         1           Si  tau(   1) = (   0.0000000   0.0000000   0.0000000  )
         2           Si  tau(   2) = (   0.2500000   0.2500000   0.2500000  )

     number of k points=    10  Marzari-Vanderbilt smearing, width (Ry)=  0.0500
                       cart. coord. in units 2pi/alat
        k(    1) = (   0.0000000   0.0000000   0.0000000), wk =   0.0160000
        k(    2) = (  -0.2000000   0.2000000  -0.2000000), wk =   0.1280000
        k(    3) = (  -0.4000000   0.4000000  -0.4000000), wk =   0.1280000
        k(    4) = (   0.0000000   0.4000000   0.0000000), wk =   0.0960000
        k(    5) = (  -0.2000000   0.6000000  -0.2000000), wk =   0.3840000
        k(    6) = (   0.6000000  -0.2000000   0.6000000), wk =   0.3840000
        k(    7) = (   0.4000000   0.0000000   0.4000000), wk =   0.1920000
        k(    8) = (   0.0000000   0.8000000   0.0000000), wk =   0.0960000
        k(    9) = (   0.8000000   0.0000000   0.8000000), wk =   0.1920000
        k(   10) = (   0.6000000  -0.2000000   1.0000000), wk =   0.3840000

     Dense  grid:    12939 G-vectors     FFT dimensions: (  36,  36,  36)

     Largest allocated arrays     est. size (Mb)     dimensions
        Kohn-Sham Wavefunctions         0.25 Mb     (    1639,   10)
        NL pseudopotentials             0.55 Mb     (    1639,   22)
        Each V/rho on FFT grid          0.71 Mb     (   46656)
        Each G-vector array             0.10 Mb     (   12939)
        G-vector shells                 0.00 Mb     (     180)
     Largest temporary arrays     est. size (Mb)     dimensions
        Auxiliary wavefunctions         1.00 Mb     (    1639,   40)
        Each subspace H/S matrix        0.02 Mb     (      40,   40)
        Each <psi_i|beta_j> matrix      0.00 Mb     (      22,   10)
        Arrays for rho mixing           5.70 Mb     (   46656,    8)

     Initial potential from superposition of free atoms

     starting charge    7.99859, renormalised to    7.00000
     Starting wfc are   32 randomized atomic wfcs

     total cpu time spent up to now is        1.3 secs

     per-process dynamical memory:    15.9 Mb

     Self-consistent Calculation

     iteration #  1     ecut=    50.00 Ry     beta=0.30
     Davidson diagonalization with overlap
     ethr =  1.00E-02,  avg # of iterations =  2.2

     Threshold (ethr) on eigenvalues was too large:
     Diagonalizing with lowered threshold

     Davidson diagonalization with overlap
     ethr =  7.06E-04,  avg # of iterations =  1.0

     total cpu time spent up to now is        3.4 secs

     total energy              =     -16.14483264 Ry
     Harris-Foulkes estimate   =     -16.15119295 Ry
     estimated scf accuracy    <       0.04935571 Ry

     iteration #  2     ecut=    50.00 Ry     beta=0.30
     Davidson diagonalization with overlap
     ethr =  7.05E-04,  avg # of iterations =  1.0

     total cpu time spent up to now is        4.4 secs

     total energy              =     -16.14105473 Ry
     Harris-Foulkes estimate   =     -16.14518231 Ry
     estimated scf accuracy    <       0.02117339 Ry

     iteration #  3     ecut=    50.00 Ry     beta=0.30
     Davidson diagonalization with overlap
     ethr =  3.02E-04,  avg # of iterations =  1.0

     total cpu time spent up to now is        5.4 secs

     total energy              =     -16.14215593 Ry
     Harris-Foulkes estimate   =     -16.14211002 Ry
     estimated scf accuracy    <       0.00020711 Ry

     iteration #  4     ecut=    50.00 Ry     beta=0.30
     Davidson diagonalization with overlap
     ethr =  2.96E-06,  avg # of iterations =  3.5

     total cpu time spent up to now is        6.5 secs

     total energy              =     -16.14218593 Ry
     Harris-Foulkes estimate   =     -16.14218483 Ry
     estimated scf accuracy    <       0.00000056 Ry

     iteration #  5     ecut=    50.00 Ry     beta=0.30
     Davidson diagonalization with overlap
     ethr =  8.00E-09,  avg # of iterations =  2.5

     total cpu time spent up to now is        7.6 secs

     total energy              =     -16.14218686 Ry
     Harris-Foulkes estimate   =     -16.14218628 Ry
     estimated scf accuracy    <       0.00000017 Ry

     iteration #  6     ecut=    50.00 Ry     beta=0.30
     Davidson diagonalization with overlap
     ethr =  2.37E-09,  avg # of iterations =  2.0

     total cpu time spent up to now is        8.6 secs

     total energy              =     -16.14218692 Ry
     Harris-Foulkes estimate   =     -16.14218693 Ry
     estimated scf accuracy    <       0.00000002 Ry

     iteration #  7     ecut=    50.00 Ry     beta=0.30
     Davidson diagonalization with overlap
     ethr =  3.10E-10,  avg # of iterations =  1.1

     total cpu time spent up to now is        9.2 secs

     End of self-consistent calculation

          k = 0.0000 0.0000 0.0000 (  1639 PWs)   bands (ev):

    -5.6649   6.1206   6.1206   6.1206   8.9815   8.9815   8.9815   9.4075
    14.1672  14.1672

          k =-0.2000 0.2000-0.2000 (  1606 PWs)   bands (ev):

    -5.1578   3.2222   5.5863   5.5863   8.5674   9.7525   9.7525  12.1890
    13.5909  13.5909

          k =-0.4000 0.4000-0.4000 (  1616 PWs)   bands (ev):

    -3.8402   0.0518   5.0527   5.0527   7.9734   9.9074   9.9074  14.6943
    15.4296  15.4296

          k = 0.0000 0.4000 0.0000 (  1607 PWs)   bands (ev):

    -4.9823   3.5006   4.7508   4.7508   7.9959  10.3695  11.1902  11.1902
    13.3055  14.9368

          k =-0.2000 0.6000-0.2000 (  1619 PWs)   bands (ev):

    -3.8698   0.9125   3.6806   4.2551   8.3193  10.5957  11.2570  11.8138
    16.5129  16.6640

          k = 0.6000-0.2000 0.6000 (  1596 PWs)   bands (ev):

    -3.0307  -0.4114   2.9142   4.5113   8.5886  10.9727  11.2466  13.9933
    14.7708  14.8875

          k = 0.4000 0.0000 0.4000 (  1610 PWs)   bands (ev):

    -4.3458   1.7197   3.3648   5.3214   9.2916  10.3970  10.6707  12.1601
    12.6975  16.9769

          k = 0.0000 0.8000 0.0000 (  1624 PWs)   bands (ev):

    -3.0067  -0.0027   3.5873   3.5873   7.2063   7.9751  14.7699  14.7699
    17.2329  17.2923

          k = 0.8000 0.0000 0.8000 (  1622 PWs)   bands (ev):

    -1.8549  -1.2295   2.3648   3.6977   7.6644   9.6718  14.4278  14.9695
    14.9892  15.4985

          k = 0.6000-0.2000 1.0000 (  1616 PWs)   bands (ev):

    -2.5946  -0.3815   2.4399   3.3654   9.8709  10.3410  10.8070  14.1745
    14.7382  16.4972

     the Fermi energy is     4.6349 ev

!    total energy              =     -16.14218692 Ry
     Harris-Foulkes estimate   =     -16.14218692 Ry
     estimated scf accuracy    <          3.4E-10 Ry

     The total energy is the sum of the following terms:

     one-electron contribution =       3.83114781 Ry
     hartree contribution      =       0.89080495 Ry
     xc contribution           =      -4.07148120 Ry
     ewald contribution        =     -16.79708774 Ry
     smearing contrib. (-TS)   =       0.00442926 Ry

     convergence has been achieved in   7 iterations

     Forces acting on atoms (Ry/au):

     atom    1 type  1   force =    -0.00000000    0.00000000   -0.00000000
     atom    2 type  1   force =     0.00000000   -0.00000000    0.00000000

     Total force =     0.000000     Total SCF correction =     0.000000


     entering subroutine stress ...

          total   stress  (Ry/bohr**3)                   (kbar)     P= -370.22
  -0.00251669  -0.00000000   0.00000000       -370.22     -0.00      0.00
  -0.00000000  -0.00251669  -0.00000000         -0.00   -370.22     -0.00
   0.00000000  -0.00000000  -0.00251669          0.00     -0.00   -370.22


     Writing output data file Si.save

     init_run     :      1.23s CPU      1.25s WALL (       1 calls)
     electrons    :      7.49s CPU      7.92s WALL (       1 calls)
     forces       :      0.06s CPU      0.06s WALL (       1 calls)
     stress       :      0.56s CPU      0.56s WALL (       1 calls)

     Called by init_run:
     wfcinit      :      1.02s CPU      1.04s WALL (       1 calls)
     potinit      :      0.06s CPU      0.06s WALL (       1 calls)

     Called by electrons:
     c_bands      :      5.89s CPU      6.25s WALL (       8 calls)
     sum_band     :      1.29s CPU      1.34s WALL (       8 calls)
     v_of_rho     :      0.33s CPU      0.35s WALL (       8 calls)
     mix_rho      :      0.02s CPU      0.02s WALL (       8 calls)

     Called by c_bands:
     init_us_2    :      0.31s CPU      0.33s WALL (     190 calls)
     cegterg      :      5.65s CPU      5.99s WALL (      80 calls)

     Called by *egterg:
     h_psi        :      6.02s CPU      6.34s WALL (     233 calls)
     g_psi        :      0.01s CPU      0.01s WALL (     143 calls)
     cdiaghg      :      0.06s CPU      0.06s WALL (     213 calls)

     Called by h_psi:
     add_vuspsi   :      0.17s CPU      0.17s WALL (     233 calls)

     General routines
     calbec       :      0.21s CPU      0.22s WALL (     253 calls)
     fft          :      0.14s CPU      0.15s WALL (      97 calls)
     fftw         :      6.28s CPU      6.60s WALL (    5008 calls)
     davcio       :      0.00s CPU      0.00s WALL (      10 calls)

     Parallel routines
     fft_scatter  :      0.18s CPU      0.18s WALL (    5105 calls)

     PWSCF        :     9.45s CPU         9.92s WALL


   This run was terminated on:  20:24:49  13Feb2023            

=------------------------------------------------------------------------------=
   JOB DONE.
=------------------------------------------------------------------------------=
