
     Program PWSCF v.5.1 starts on 15Feb2023 at  4: 4:22 

     This program is part of the open-source Quantum ESPRESSO suite
     for quantum simulation of materials; please cite
         "P. Giannozzi et al., J. Phys.:Condens. Matter 21 395502 (2009);
          URL http://www.quantum-espresso.org", 
     in publications or presentations arising from this work. More details at
     http://www.quantum-espresso.org/quote

     Parallel version (MPI), running on     1 processors
     Waiting for input...
     Reading input from standard input
Warning: card   SI    0.0000000000D0   0.5000000000D0   0.5000000000D0 ignored
Warning: card   SI    0.2500000000D0   0.7500000000D0   0.7500000000D0 ignored
Warning: card   SI   -0.5000000000D0   0.0000000000D0   0.5000000000D0 ignored
Warning: card   SI   -0.2500000000D0   0.2500000000D0   0.7500000000D0 ignored
Warning: card   SI   -0.5000000000D0   0.5000000000D0   0.10000000000D0 ignored
Warning: card   SI   -0.2500000000D0   0.7500000000D0   1.25000000000D0 ignored

     Current dimensions of program PWSCF are:
     Max number of different atomic species (ntypx) = 10
     Max number of k-points (npk) =  40000
     Max angular momentum in pseudopotentials (lmaxx) =  3

     Atomic positions and unit cell read from directory:
     ./out/Si.save/

               file Si.pbe-mt_fhi.UPF: wavefunction(s)  4f renormalized
               file P.pbe-mt_fhi.UPF: wavefunction(s)  4f renormalized

     Subspace diagonalization in iterative solution of the eigenvalue problem:
     a serial algorithm will be used


     G-vector sticks info
     --------------------
     sticks:   dense  smooth     PW     G-vecs:    dense   smooth      PW
     Sum         733     733    211                12939    12939    2109



     bravais-lattice index     =            2
     lattice parameter (alat)  =      10.2623  a.u.
     unit-cell volume          =     270.1967 (a.u.)^3
     number of atoms/cell      =            2
     number of atomic types    =            2
     number of electrons       =        19.00
     number of Kohn-Sham states=           24
     kinetic-energy cutoff     =      50.0000  Ry
     charge density cutoff     =     200.0000  Ry
     Exchange-correlation      = PBE ( 1  4  3  4 0)

     celldm(1)=  10.262347  celldm(2)=   0.000000  celldm(3)=   0.000000
     celldm(4)=   0.000000  celldm(5)=   0.000000  celldm(6)=   0.000000

     crystal axes: (cart. coord. in units of alat)
               a(1) = (  -0.500000   0.000000   0.500000 )  
               a(2) = (   0.000000   0.500000   0.500000 )  
               a(3) = (  -0.500000   0.500000   0.000000 )  

     reciprocal axes: (cart. coord. in units 2 pi/alat)
               b(1) = ( -1.000000 -1.000000  1.000000 )  
               b(2) = (  1.000000  1.000000  1.000000 )  
               b(3) = ( -1.000000  1.000000 -1.000000 )  


     PseudoPot. # 1 for Si read from file:
     /home/acedemo/psudo/Si.pbe-mt_fhi.UPF
     MD5 check sum: 259057c2adf9952f9ced37ae3d9e311d
     Pseudo is Norm-conserving, Zval =  4.0
     Generated using FHI98PP, converted with fhi2upf.x v.5.0.2
     Using radial grid of  495 points,  3 beta functions with: 
                l(1) =   0
                l(2) =   1
                l(3) =   3

     PseudoPot. # 2 for  P read from file:
     /home/acedemo/psudo/P.pbe-mt_fhi.UPF
     MD5 check sum: 7191c457fb61afa58d0f00d0e4a443c1
     Pseudo is Norm-conserving, Zval =  5.0
     Generated using FHI98PP, converted with fhi2upf.x v.5.0.2
     Using radial grid of  499 points,  3 beta functions with: 
                l(1) =   0
                l(2) =   1
                l(3) =   3

     atomic species   valence    mass     pseudopotential
        Si             4.00    28.08550     Si( 1.00)
        P              5.00    30.97376      P( 1.00)

     24 Sym. Ops. (no inversion) found



   Cartesian axes

     site n.     atom                  positions (alat units)
         1           P   tau(   1) = (   0.0000000   0.0000000   0.0000000  )
         2           Si  tau(   2) = (   0.2500000   0.2500000   0.2500000  )

     number of k points=    51  Marzari-Vanderbilt smearing, width (Ry)=  0.0500
                       cart. coord. in units 2pi/alat
        k(    1) = (   0.5000000   0.5000000   0.5000000), wk =   0.0000000
        k(    2) = (   0.4500000   0.4500000   0.4500000), wk =   0.0014779
        k(    3) = (   0.4000000   0.4000000   0.4000000), wk =   0.0029558
        k(    4) = (   0.3500000   0.3500000   0.3500000), wk =   0.0044337
        k(    5) = (   0.3000000   0.3000000   0.3000000), wk =   0.0059116
        k(    6) = (   0.2500000   0.2500000   0.2500000), wk =   0.0073895
        k(    7) = (   0.2000000   0.2000000   0.2000000), wk =   0.0088674
        k(    8) = (   0.1500000   0.1500000   0.1500000), wk =   0.0103453
        k(    9) = (   0.1000000   0.1000000   0.1000000), wk =   0.0118232
        k(   10) = (   0.0500000   0.0500000   0.0500000), wk =   0.0133011
        k(   11) = (   0.0000000   0.0000000   0.0000000), wk =   0.0147790
        k(   12) = (   0.0000000   0.1000000   0.0000000), wk =   0.0168691
        k(   13) = (   0.0000000   0.2000000   0.0000000), wk =   0.0189591
        k(   14) = (   0.0000000   0.3000000   0.0000000), wk =   0.0210492
        k(   15) = (   0.0000000   0.4000000   0.0000000), wk =   0.0231392
        k(   16) = (   0.0000000   0.5000000   0.0000000), wk =   0.0252293
        k(   17) = (   0.0000000   0.6000000   0.0000000), wk =   0.0273194
        k(   18) = (   0.0000000   0.7000000   0.0000000), wk =   0.0294094
        k(   19) = (   0.0000000   0.8000000   0.0000000), wk =   0.0314995
        k(   20) = (   0.0000000   0.9000000   0.0000000), wk =   0.0335896
        k(   21) = (   0.0000000   1.0000000   0.0000000), wk =   0.0356796
        k(   22) = (   0.0000000   0.9750000   0.0750000), wk =   0.0370621
        k(   23) = (   0.0000000   0.9500000   0.1500000), wk =   0.0384445
        k(   24) = (  -0.0000000   0.9250000   0.2250000), wk =   0.0398270
        k(   25) = (  -0.0000000   0.9000000   0.3000000), wk =   0.0412094
        k(   26) = (   0.0000000   0.8750000   0.3750000), wk =   0.0425919
        k(   27) = (   0.0000000   0.8500000   0.4500000), wk =   0.0439743
        k(   28) = (   0.0000000   0.8250000   0.5250000), wk =   0.0453568
        k(   29) = (  -0.0000000   0.8000000   0.6000000), wk =   0.0467392
        k(   30) = (  -0.0000000   0.7750000   0.6750000), wk =   0.0481217
        k(   31) = (   0.0000000   0.7500000   0.7500000), wk =   0.0495041
        k(   32) = (   0.0000000   0.7250000   0.7750000), wk =   0.0500266
        k(   33) = (   0.0000000   0.7000000   0.8000000), wk =   0.0505491
        k(   34) = (   0.0000000   0.6750000   0.8250000), wk =   0.0510717
        k(   35) = (   0.0000000   0.6500000   0.8500000), wk =   0.0515942
        k(   36) = (   0.0000000   0.6250000   0.8750000), wk =   0.0521167
        k(   37) = (   0.0000000   0.6000000   0.9000000), wk =   0.0526392
        k(   38) = (   0.0000000   0.5750000   0.9250000), wk =   0.0531617
        k(   39) = (   0.0000000   0.5500000   0.9500000), wk =   0.0536842
        k(   40) = (   0.0000000   0.5250000   0.9750000), wk =   0.0542067
        k(   41) = (   0.0000000   0.5000000   1.0000000), wk =   0.0547293
        k(   42) = (   0.0000000   0.4500000   0.9000000), wk =   0.0574942
        k(   43) = (  -0.0000000   0.4000000   0.8000000), wk =   0.0602591
        k(   44) = (  -0.0000000   0.3500000   0.7000000), wk =   0.0630239
        k(   45) = (  -0.0000000   0.3000000   0.6000000), wk =   0.0657888
        k(   46) = (   0.0000000   0.2500000   0.5000000), wk =   0.0685537
        k(   47) = (   0.0000000   0.2000000   0.4000000), wk =   0.0713186
        k(   48) = (   0.0000000   0.1500000   0.3000000), wk =   0.0740835
        k(   49) = (  -0.0000000   0.1000000   0.2000000), wk =   0.0768484
        k(   50) = (  -0.0000000   0.0500000   0.1000000), wk =   0.0796133
        k(   51) = (   0.0000000   0.0000000   0.0000000), wk =   0.0823782

     Dense  grid:    12939 G-vectors     FFT dimensions: (  36,  36,  36)

     Largest allocated arrays     est. size (Mb)     dimensions
        Kohn-Sham Wavefunctions         0.60 Mb     (    1639,   24)
        NL pseudopotentials             0.55 Mb     (    1639,   22)
        Each V/rho on FFT grid          0.71 Mb     (   46656)
        Each G-vector array             0.10 Mb     (   12939)
        G-vector shells                 0.00 Mb     (     180)
     Largest temporary arrays     est. size (Mb)     dimensions
        Auxiliary wavefunctions         2.40 Mb     (    1639,   96)
        Each subspace H/S matrix        0.14 Mb     (      96,   96)
        Each <psi_i|beta_j> matrix      0.01 Mb     (      22,   24)

     The potential is recalculated from file :
     ./out/Si.save/charge-density.dat

     Starting wfc are   32 randomized atomic wfcs

     Band Structure Calculation
     Davidson diagonalization with overlap

     ethr =  8.42E-12,  avg # of iterations = 21.4

     total cpu time spent up to now is       66.0 secs

     End of band structure calculation

          k = 0.5000 0.5000 0.5000 (  1622 PWs)   bands (ev):

    -6.3432  -3.5611   2.6428   2.6428   4.4277   6.7820   6.7820   9.4259
    13.6062  14.5788  14.5788  14.7159  14.7159  15.7219  22.3474  22.8422
    24.5586  24.5586  25.5044  25.5044  27.8633  29.7825  29.9095  29.9095

          k = 0.4500 0.4500 0.4500 (  1610 PWs)   bands (ev):

    -6.4756  -3.3649   2.6597   2.6597   4.4496   6.8114   6.8114   9.4686
    13.2206  13.6034  13.6034  15.7687  15.7687  16.0658  21.1167  23.5393
    23.5393  24.1307  26.4330  26.4330  27.0039  29.9324  29.9324  30.6224

          k = 0.4000 0.4000 0.4000 (  1616 PWs)   bands (ev):

    -6.7910  -2.8587   2.7106   2.7106   4.5155   6.8942   6.8942   9.5914
    12.4526  12.6576  12.6576  16.5759  16.9437  16.9437  19.9674  22.1786
    22.1786  24.8914  26.4092  27.4159  27.4159  29.9515  29.9515  31.0262

          k = 0.3500 0.3500 0.3500 (  1610 PWs)   bands (ev):

    -7.1682  -2.1653   2.7956   2.7956   4.6259   7.0118   7.0118   9.7679
    11.6311  11.8308  11.8308  16.4264  18.1177  18.1177  19.6566  20.8989
    20.8989  23.7091  27.7944  27.9186  27.9186  29.8708  29.8708  31.9612

          k = 0.3000 0.3000 0.3000 (  1615 PWs)   bands (ev):

    -7.5399  -1.3553   2.9141   2.9141   4.7809   7.1265   7.1265   9.8672
    10.9565  11.1642  11.1642  15.4720  18.7640  18.7640  20.2357  20.2560
    20.2560  22.3640  28.0421  28.0421  29.4752  29.7155  29.7155  32.0814

          k = 0.2500 0.2500 0.2500 (  1618 PWs)   bands (ev):

    -7.8751  -0.4645   3.0644   3.0644   4.9793   7.1768   7.1768   9.4708
    10.7215  10.7215  10.8427  14.2988  17.9225  17.9225  20.5211  21.2145
    21.2145  21.7268  28.0012  28.0012  29.5339  29.5339  31.1927  31.6791

          k = 0.2000 0.2000 0.2000 (  1606 PWs)   bands (ev):

    -8.1594   0.4839   3.2413   3.2413   5.2163   7.0998   7.0998   8.7230
    10.5677  10.5677  11.0611  13.2423  16.8118  16.8118  19.4612  22.5495
    22.5495  22.6399  27.9104  27.9104  29.3498  29.3498  31.0934  32.9145

          k = 0.1500 0.1500 0.1500 (  1600 PWs)   bands (ev):

    -8.3854   1.4678   3.4338   3.4338   5.4778   6.8936   6.8936   7.9096
    10.7063  10.7063  10.9963  12.7193  15.7459  15.7459  18.3122  23.7876
    23.9274  23.9274  27.8245  27.8245  29.1678  29.1678  30.3853  33.6675

          k = 0.1000 0.1000 0.1000 (  1606 PWs)   bands (ev):

    -8.5490   2.4527   3.6208   3.6208   5.7223   6.6346   6.6346   7.1007
    10.4276  11.0594  11.0594  12.9496  14.7841  14.7841  17.2739  24.9547
    25.2410  25.2410  27.7848  27.7848  28.9708  28.9708  29.5647  33.5020

          k = 0.0500 0.0500 0.0500 (  1630 PWs)   bands (ev):

    -8.6480   3.3525   3.7657   3.7657   5.7844   6.4222   6.4222   6.4687
     9.8827  11.4928  11.4928  13.4103  14.0076  14.0076  16.4486  26.0526
    26.2925  26.2925  27.8704  27.8704  28.6838  28.7066  28.7066  33.4017

          k = 0.0000 0.0000 0.0000 (  1639 PWs)   bands (ev):

    -8.6811   3.8220   3.8220   3.8220   5.5743   6.3395   6.3395   6.3395
     9.6697  11.7311  11.7311  13.6584  13.6584  13.6584  16.0894  26.7024
    26.7024  26.7024  28.1074  28.1074  28.1074  28.4190  28.4190  33.3681

          k = 0.0000 0.1000 0.0000 (  1627 PWs)   bands (ev):

    -8.6370   3.4118   3.6310   3.6310   5.9843   6.1418   6.5816   6.5816
     9.9439  11.1104  11.7800  13.7436  13.7436  13.9904  16.6047  25.8995
    25.8995  26.7395  27.3118  27.8792  28.7031  28.7031  29.0791  33.6750

          k = 0.0000 0.2000 0.0000 (  1599 PWs)   bands (ev):

    -8.5048   2.6365   3.2016   3.2016   5.6782   6.7117   7.1624   7.1624
    10.0033  10.7131  11.9263  14.0005  14.0005  14.4188  17.9299  24.5747
    24.5747  26.2496  26.6844  26.9062  29.4400  29.4400  29.6838  34.5498

          k = 0.0000 0.3000 0.0000 (  1607 PWs)   bands (ev):

    -8.2860   1.7916   2.7111   2.7111   5.1448   7.1227   7.8997   7.8997
     9.3930  11.6285  12.1701  14.4315  14.4315  14.8407  19.6587  23.1805
    23.1805  25.1792  25.2891  27.1308  29.9887  29.9887  30.0491  35.2406

          k = 0.0000 0.4000 0.0000 (  1607 PWs)   bands (ev):

    -7.9822   0.9323   2.2389   2.2389   4.6306   6.6736   8.7081   8.7081
     9.7702  12.5111  12.6932  15.0365  15.0365  15.3513  21.5625  21.8040
    21.8040  23.8635  24.1079  27.4713  30.0766  30.4005  30.4005  33.7428

          k = 0.0000 0.5000 0.0000 (  1612 PWs)   bands (ev):

    -7.5968   0.0693   1.8172   1.8172   4.1753   5.8706   9.5508   9.5508
    10.6627  12.9490  13.8184  15.8043  15.8043  16.0003  20.4905  20.4905
    22.4698  23.0266  23.5784  27.9497  29.5786  30.5865  30.5865  32.2084

          k = 0.0000 0.6000 0.0000 (  1620 PWs)   bands (ev):

    -7.1355  -0.7927   1.4613   1.4613   3.7973   5.1112  10.4116  10.4116
    11.6683  13.4831  14.9208  16.6728  16.6728  16.8220  19.3149  19.3149
    21.1355  22.1653  25.3772  28.4100  28.6205  29.6425  29.6425  30.9537

          k = 0.0000 0.7000 0.0000 (  1632 PWs)   bands (ev):

    -6.6083  -1.6421   1.1790   1.1790   3.5064   4.4906  11.2838  11.2838
    12.6715  14.1126  15.8576  17.1655  17.1655  17.8396  18.7540  18.7540
    19.8748  21.5248  26.7573  26.9103  27.9164  27.9164  28.4877  30.4937

          k = 0.0000 0.8000 0.0000 (  1624 PWs)   bands (ev):

    -6.0374  -2.4511   0.9748   0.9748   3.3066   4.0338  12.1592  12.1592
    13.6112  14.8357  16.4024  16.4774  16.4774  18.6970  19.0373  19.6080
    19.6080  21.3798  25.2665  26.1290  26.1290  26.5260  28.1523  30.8517

          k = 0.0000 0.9000 0.0000 (  1608 PWs)   bands (ev):

    -5.4895  -3.1460   0.8514   0.8514   3.1956   3.7507  12.9919  12.9919
    14.4019  15.5682  15.5682  15.6458  16.4286  17.6127  20.3518  20.9222
    20.9222  21.8512  23.7375  24.4261  24.4261  25.0139  28.7981  30.3190

          k = 0.0000 1.0000 0.0000 (  1604 PWs)   bands (ev):

    -5.2065  -3.4786   0.8101   0.8101   3.1616   3.6534  13.4666  13.4666
    14.7772  15.0571  15.0571  16.2900  16.3724  16.7945  21.4815  21.8845
    21.9459  21.9459  23.1965  23.2815  23.2815  23.9783  29.2124  29.9378

          k = 0.0000 0.9750 0.0750 (  1618 PWs)   bands (ev):

    -5.2202  -3.4396   0.6908   0.6993   3.3471   3.8352  13.0761  13.3179
    14.2163  14.8958  15.4622  16.3417  16.7671  17.2375  20.9199  21.5687
    21.6679  22.2620  23.3098  23.4523  23.8101  24.3351  28.8849  29.6732

          k = 0.0000 0.9500 0.1500 (  1622 PWs)   bands (ev):

    -5.2551  -3.3337   0.3991   0.4567   3.8226   4.3092  12.0617  12.8717
    13.7484  14.8672  15.5920  16.4909  17.4439  18.3052  20.0045  21.0911
    21.4390  22.4139  23.5308  23.7637  24.9364  25.1311  28.1109  29.0717

          k =-0.0000 0.9250 0.2250 (  1622 PWs)   bands (ev):

    -5.2978  -3.1902   0.0455   0.2129   4.4695   4.9645  10.8608  12.1933
    13.4321  14.9158  15.6225  16.7127  18.1043  19.2459  19.4406  20.5971
    21.4013  22.5288  23.7864  24.2474  26.0363  26.0875  27.2005  28.4806

          k =-0.0000 0.9000 0.3000 (  1623 PWs)   bands (ev):

    -5.3361  -3.0492  -0.3025   0.0527   5.2193   5.7335   9.6442  11.4344
    13.1669  14.8104  15.7825  16.9355  18.1760  19.2406  19.7762  20.8180
    21.6497  22.6529  24.0090  24.7088  26.2192  26.7449  26.9766  28.6562

          k = 0.0000 0.8750 0.3750 (  1614 PWs)   bands (ev):

    -5.3616  -2.9514  -0.6108   0.0300   6.0234   6.5768   8.4810  10.6746
    12.8993  14.5108  16.0671  17.1372  17.7949  19.5280  19.8711  21.1581
    22.5253  22.8334  24.0598  24.3739  26.1237  26.7112  27.6817  29.8895

          k = 0.0000 0.8500 0.4500 (  1612 PWs)   bands (ev):

    -5.3705  -2.9213  -0.8608   0.1675   6.6640   7.3372   7.7251   9.9528
    12.6073  14.0659  16.3963  17.2966  17.5987  19.3723  20.5118  21.3773
    22.9869  23.3951  23.5787  23.8379  26.0904  27.4302  28.0417  30.3633

          k = 0.0000 0.8250 0.5250 (  1611 PWs)   bands (ev):

    -5.3622  -2.9531  -1.0407   0.4477   6.0282   7.9206   8.5273   9.3358
    12.2833  13.5326  16.7098  17.3776  17.7127  19.3398  20.9683  21.6505
    22.4762  23.0718  23.2718  24.5770  26.1273  27.5972  28.6578  29.8789

          k =-0.0000 0.8000 0.6000 (  1614 PWs)   bands (ev):

    -5.3381  -3.0213  -1.1431   0.8143   5.0981   8.2274   9.3129   9.5329
    11.9299  12.9719  16.9670  17.5073  18.0341  19.3812  20.7361  21.7152
    22.1205  22.6337  23.5769  25.1915  25.9927  26.8295  29.1843  29.5177

          k =-0.0000 0.7750 0.6750 (  1621 PWs)   bands (ev):

    -5.3006  -3.0993  -1.1631   1.1599   4.3271   7.7747  10.1521  10.5388
    11.5603  12.4529  17.1617  17.7441  18.4697  19.4103  19.9154  21.0256
    22.3226  23.0206  23.8922  25.0975  25.7933  26.0651  28.5843  29.0883

          k = 0.0000 0.7500 0.7500 (  1624 PWs)   bands (ev):

    -5.2531  -3.1683  -1.0991   1.2729   3.9386   7.2462  11.0002  11.2805
    11.3117  12.2591  17.2303  18.0539  18.9072  19.1434  19.3236  20.3640
    22.4887  23.5683  23.9268  24.6708  25.0459  26.2540  28.0815  28.8012

          k = 0.0000 0.7250 0.7750 (  1616 PWs)   bands (ev):

    -5.2498  -3.1667  -1.0940   1.2164   4.0115   7.2505  10.7750  11.1329
    11.5342  12.4119  17.1916  18.0449  18.7565  19.2066  19.4217  20.4259
    22.4404  23.5490  23.8067  24.7199  25.1869  26.2526  28.0874  28.7837

          k = 0.0000 0.7000 0.8000 (  1621 PWs)   bands (ev):

    -5.2401  -3.1623  -1.0786   1.0640   4.2136   7.2633  10.4442  10.8221
    11.8594  12.7351  17.0761  18.0147  18.5723  19.1535  19.7227  20.5787
    22.3118  23.4286  23.6184  24.8612  25.4905  26.2410  28.1081  28.7354

          k = 0.0000 0.6750 0.8250 (  1620 PWs)   bands (ev):

    -5.2244  -3.1555  -1.0530   0.8507   4.5100   7.2845  10.1060  10.4669
    12.1882  13.1084  16.8925  17.9481  18.4410  19.1089  20.0656  20.7647
    22.1459  23.1209  23.5698  25.0549  25.8353  26.1985  28.1533  28.6728

          k = 0.0000 0.6500 0.8500 (  1616 PWs)   bands (ev):

    -5.2033  -3.1472  -1.0175   0.6085   4.8696   7.3136   9.7706  10.1021
    12.5104  13.4924  16.6625  17.8187  18.3847  19.1177  20.4013  20.9375
    22.0036  22.7749  23.5593  25.2646  26.0410  26.2165  28.2423  28.6299

          k = 0.0000 0.6250 0.8750 (  1616 PWs)   bands (ev):

    -5.1781  -3.1385  -0.9721   0.3601   5.2701   7.3503   9.4431   9.7390
    12.8214  13.8668  16.4135  17.6291  18.4020  19.1793  20.6409  21.1060
    21.9506  22.4411  23.5623  25.4682  25.8375  26.4993  28.3977  28.6501

          k = 0.0000 0.6000 0.9000 (  1613 PWs)   bands (ev):

    -5.1504  -3.1308  -0.9174   0.1209   5.6951   7.3945   9.1285   9.3831
    13.1166  14.2102  16.1747  17.4083  18.4730  19.2745  20.6536  21.3765
    21.9224  22.2216  23.5758  25.4776  25.6934  26.7206  28.6273  28.7725

          k = 0.0000 0.5750 0.9250 (  1615 PWs)   bands (ev):

    -5.1223  -3.1253  -0.8543  -0.0972   6.1278   7.4479   8.8341   9.0381
    13.3900  14.4880  15.9831  17.1819  18.5851  19.3695  20.5430  21.6536
    21.7396  22.3044  23.6003  25.0750  25.8707  26.8374  28.9107  29.0266

          k = 0.0000 0.5500 0.9500 (  1615 PWs)   bands (ev):

    -5.0968  -3.1228  -0.7850  -0.2840   6.5372   7.5214   8.5713   8.7103
    13.6305  14.6484  15.8877  16.9724  18.7337  19.4049  20.4611  21.3907
    22.0460  22.4696  23.6362  24.6334  26.0486  26.8471  29.2400  29.3927

          k = 0.0000 0.5250 0.9750 (  1615 PWs)   bands (ev):

    -5.0779  -3.1232  -0.7171  -0.4252   6.8472   7.6526   8.3537   8.4229
    13.8134  14.6751  15.8989  16.8114  18.9169  19.3215  20.4842  21.1453
    22.3297  22.5933  23.6708  24.2536  26.2077  26.7792  29.6143  29.8199

          k = 0.0000 0.5000 1.0000 (  1628 PWs)   bands (ev):

    -5.0705  -3.1242  -0.6822  -0.4852   6.9533   7.7928   8.2453   8.2638
    13.8877  14.6570  15.9266  16.7483  19.1142  19.1481  20.5360  21.0279
    22.5121  22.5817  23.6694  24.1069  26.2895  26.7202  29.9137  30.2156

          k = 0.0000 0.4500 0.9000 (  1616 PWs)   bands (ev):

    -5.2153  -3.0331  -0.8127  -0.1120   6.6999   7.3697   7.9094   9.4876
    13.1477  14.5470  15.9959  17.1960  18.0812  19.4685  20.7270  21.0892
    22.3100  23.1511  23.6632  24.1542  25.9520  27.4283  28.0827  30.5235

          k =-0.0000 0.4000 0.8000 (  1616 PWs)   bands (ev):

    -5.6417  -2.7081  -0.6963   0.4374   6.3598   6.9582   7.6869  11.0565
    12.0831  13.6746  16.7251  16.9534  17.2054  19.2879  19.6357  21.7446
    23.3769  23.6146  23.8067  23.9552  26.0764  26.7505  28.5922  30.5376

          k =-0.0000 0.3500 0.7000 (  1618 PWs)   bands (ev):

    -6.2129  -2.1820  -0.3523   1.0566   6.0608   6.7235   7.5586  11.0388
    12.2671  13.0784  15.9643  16.4449  17.1293  18.3797  19.6832  21.3046
    23.0397  24.1702  24.2704  24.9238  26.5217  27.4547  29.2030  30.2126

          k =-0.0000 0.3000 0.6000 (  1609 PWs)   bands (ev):

    -6.8034  -1.5102   0.1536   1.6959   5.8338   6.6967   7.4881  10.0626
    11.6839  13.7451  15.0142  15.8205  16.4222  18.4643  19.1484  21.6350
    21.8362  24.1534  24.7375  26.8761  27.1704  27.9854  28.6890  31.3388

          k = 0.0000 0.2500 0.5000 (  1610 PWs)   bands (ev):

    -7.3481  -0.7222   0.7798   2.2962   5.7000   6.8612   7.4603   9.1632
    10.9850  13.1871  14.0252  14.8380  16.9930  17.7250  19.2858  21.0053
    22.8287  23.5967  25.2209  25.7498  28.3069  29.2405  30.7205  31.9256

          k = 0.0000 0.2000 0.4000 (  1613 PWs)   bands (ev):

    -7.8156   0.1667   1.4923   2.8073   5.6732   6.9408   7.6743   8.3485
    10.3794  12.1326  13.0248  14.2272  15.6939  18.0319  19.6351  21.6635
    22.1725  23.9715  25.5806  25.7892  28.7496  30.8665  32.1334  32.2251

          k = 0.0000 0.1500 0.3000 (  1607 PWs)   bands (ev):

    -8.1895   1.1432   2.2497   3.2135   5.7605   6.7106   7.6232   8.0891
     9.8083  11.4979  11.9954  13.8181  14.7265  16.6751  19.8861  21.7026
    23.2611  25.1294  25.8841  26.4029  29.0167  30.6171  31.1750  33.7587

          k =-0.0000 0.1000 0.2000 (  1600 PWs)   bands (ev):

    -8.4612   2.1843   2.9851   3.5255   5.9557   6.3626   7.0031   7.6334
    10.0944  10.8831  11.5192  13.5975  14.1052  15.4107  18.1058  23.7694
    24.5791  26.1816  26.3419  27.1313  29.0766  29.8386  30.0207  34.3275

          k =-0.0000 0.0500 0.1000 (  1623 PWs)   bands (ev):

    -8.6260   3.2162   3.5770   3.7407   5.9591   6.2075   6.5328   6.7052
    10.0110  11.1015  11.6506  13.5856  13.7661  14.2895  16.6930  25.6524
    25.8746  26.5666  27.3071  27.9121  28.7182  28.8736  29.0761  33.6396

          k = 0.0000 0.0000 0.0000 (  1639 PWs)   bands (ev):

    -8.6811   3.8220   3.8220   3.8220   5.5743   6.3395   6.3395   6.3395
     9.6697  11.7311  11.7311  13.6584  13.6584  13.6584  16.0894  26.7024
    26.7024  26.7024  28.1074  28.1074  28.1074  28.4190  28.4190  33.3681

     Writing output data file Si.save

     init_run     :      0.31s CPU      0.32s WALL (       1 calls)
     electrons    :     62.16s CPU     63.69s WALL (       1 calls)

     Called by init_run:
     wfcinit      :      0.00s CPU      0.00s WALL (       1 calls)
     potinit      :      0.06s CPU      0.06s WALL (       1 calls)

     Called by electrons:
     c_bands      :     62.16s CPU     63.69s WALL (       1 calls)
     v_of_rho     :      0.05s CPU      0.05s WALL (       1 calls)

     Called by c_bands:
     init_us_2    :      0.09s CPU      0.10s WALL (      51 calls)
     cegterg      :     56.49s CPU     57.88s WALL (      75 calls)

     Called by *egterg:
     h_psi        :     43.66s CPU     44.76s WALL (    1219 calls)
     g_psi        :      0.12s CPU      0.13s WALL (    1093 calls)
     cdiaghg      :      3.19s CPU      3.29s WALL (    1144 calls)

     Called by h_psi:
     add_vuspsi   :      1.20s CPU      1.22s WALL (    1219 calls)

     General routines
     calbec       :      1.35s CPU      1.39s WALL (    1219 calls)
     fft          :      0.02s CPU      0.03s WALL (      10 calls)
     fftw         :     38.93s CPU     39.93s WALL (   31830 calls)
     davcio       :      0.00s CPU      0.01s WALL (      51 calls)

     Parallel routines
     fft_scatter  :      0.98s CPU      0.99s WALL (   31840 calls)

     PWSCF        :  1m 4.30s CPU     1m 6.16s WALL


   This run was terminated on:   4: 5:29  15Feb2023            

=------------------------------------------------------------------------------=
   JOB DONE.
=------------------------------------------------------------------------------=
