
     Program PWSCF v.5.1 starts on 15Feb2023 at  4: 2:43 

     This program is part of the open-source Quantum ESPRESSO suite
     for quantum simulation of materials; please cite
         "P. Giannozzi et al., J. Phys.:Condens. Matter 21 395502 (2009);
          URL http://www.quantum-espresso.org", 
     in publications or presentations arising from this work. More details at
     http://www.quantum-espresso.org/quote

     Parallel version (MPI), running on     1 processors
     Waiting for input...
     Reading input from standard input
Warning: card   SI    0.0000000000D0   0.5000000000D0   0.5000000000D0 ignored
Warning: card   SI    0.2500000000D0   0.7500000000D0   0.7500000000D0 ignored
Warning: card   SI   -0.5000000000D0   0.0000000000D0   0.5000000000D0 ignored
Warning: card   SI   -0.2500000000D0   0.2500000000D0   0.7500000000D0 ignored
Warning: card   SI   -0.5000000000D0   0.5000000000D0   0.10000000000D0 ignored
Warning: card   SI   -0.2500000000D0   0.7500000000D0   1.25000000000D0 ignored

     Current dimensions of program PWSCF are:
     Max number of different atomic species (ntypx) = 10
     Max number of k-points (npk) =  40000
     Max angular momentum in pseudopotentials (lmaxx) =  3

     Atomic positions and unit cell read from directory:
     ./out/Si.save/

               file Si.pbe-mt_fhi.UPF: wavefunction(s)  4f renormalized
               file P.pbe-mt_fhi.UPF: wavefunction(s)  4f renormalized

     Subspace diagonalization in iterative solution of the eigenvalue problem:
     a serial algorithm will be used


     G-vector sticks info
     --------------------
     sticks:   dense  smooth     PW     G-vecs:    dense   smooth      PW
     Sum         733     733    223                12939    12939    2229



     bravais-lattice index     =            2
     lattice parameter (alat)  =      10.2623  a.u.
     unit-cell volume          =     270.1967 (a.u.)^3
     number of atoms/cell      =            2
     number of atomic types    =            2
     number of electrons       =        19.00
     number of Kohn-Sham states=           24
     kinetic-energy cutoff     =      50.0000  Ry
     charge density cutoff     =     200.0000  Ry
     Exchange-correlation      = PBE ( 1  4  3  4 0)

     celldm(1)=  10.262347  celldm(2)=   0.000000  celldm(3)=   0.000000
     celldm(4)=   0.000000  celldm(5)=   0.000000  celldm(6)=   0.000000

     crystal axes: (cart. coord. in units of alat)
               a(1) = (  -0.500000   0.000000   0.500000 )  
               a(2) = (   0.000000   0.500000   0.500000 )  
               a(3) = (  -0.500000   0.500000   0.000000 )  

     reciprocal axes: (cart. coord. in units 2 pi/alat)
               b(1) = ( -1.000000 -1.000000  1.000000 )  
               b(2) = (  1.000000  1.000000  1.000000 )  
               b(3) = ( -1.000000  1.000000 -1.000000 )  


     PseudoPot. # 1 for Si read from file:
     /home/acedemo/psudo/Si.pbe-mt_fhi.UPF
     MD5 check sum: 259057c2adf9952f9ced37ae3d9e311d
     Pseudo is Norm-conserving, Zval =  4.0
     Generated using FHI98PP, converted with fhi2upf.x v.5.0.2
     Using radial grid of  495 points,  3 beta functions with: 
                l(1) =   0
                l(2) =   1
                l(3) =   3

     PseudoPot. # 2 for  P read from file:
     /home/acedemo/psudo/P.pbe-mt_fhi.UPF
     MD5 check sum: 7191c457fb61afa58d0f00d0e4a443c1
     Pseudo is Norm-conserving, Zval =  5.0
     Generated using FHI98PP, converted with fhi2upf.x v.5.0.2
     Using radial grid of  499 points,  3 beta functions with: 
                l(1) =   0
                l(2) =   1
                l(3) =   3

     atomic species   valence    mass     pseudopotential
        Si             4.00    28.08550     Si( 1.00)
        P              5.00    30.97376      P( 1.00)

     24 Sym. Ops. (no inversion) found



   Cartesian axes

     site n.     atom                  positions (alat units)
         1           P   tau(   1) = (   0.0000000   0.0000000   0.0000000  )
         2           Si  tau(   2) = (   0.2500000   0.2500000   0.2500000  )

     number of k points=    72 (tetrahedron method)
                       cart. coord. in units 2pi/alat
        k(    1) = (   0.0000000   0.0000000   0.0000000), wk =   0.0011574
        k(    2) = (  -0.0833333   0.0833333  -0.0833333), wk =   0.0092593
        k(    3) = (  -0.1666667   0.1666667  -0.1666667), wk =   0.0092593
        k(    4) = (  -0.2500000   0.2500000  -0.2500000), wk =   0.0092593
        k(    5) = (  -0.3333333   0.3333333  -0.3333333), wk =   0.0092593
        k(    6) = (  -0.4166667   0.4166667  -0.4166667), wk =   0.0092593
        k(    7) = (   0.5000000  -0.5000000   0.5000000), wk =   0.0046296
        k(    8) = (   0.0000000   0.1666667   0.0000000), wk =   0.0069444
        k(    9) = (  -0.0833333   0.2500000  -0.0833333), wk =   0.0277778
        k(   10) = (  -0.1666667   0.3333333  -0.1666667), wk =   0.0277778
        k(   11) = (  -0.2500000   0.4166667  -0.2500000), wk =   0.0277778
        k(   12) = (  -0.3333333   0.5000000  -0.3333333), wk =   0.0277778
        k(   13) = (   0.5833333  -0.4166667   0.5833333), wk =   0.0277778
        k(   14) = (   0.5000000  -0.3333333   0.5000000), wk =   0.0277778
        k(   15) = (   0.4166667  -0.2500000   0.4166667), wk =   0.0277778
        k(   16) = (   0.3333333  -0.1666667   0.3333333), wk =   0.0277778
        k(   17) = (   0.2500000  -0.0833333   0.2500000), wk =   0.0277778
        k(   18) = (   0.1666667  -0.0000000   0.1666667), wk =   0.0138889
        k(   19) = (   0.0000000   0.3333333   0.0000000), wk =   0.0069444
        k(   20) = (  -0.0833333   0.4166667  -0.0833333), wk =   0.0277778
        k(   21) = (  -0.1666667   0.5000000  -0.1666667), wk =   0.0277778
        k(   22) = (  -0.2500000   0.5833333  -0.2500000), wk =   0.0277778
        k(   23) = (   0.6666667  -0.3333333   0.6666667), wk =   0.0277778
        k(   24) = (   0.5833333  -0.2500000   0.5833333), wk =   0.0277778
        k(   25) = (   0.5000000  -0.1666667   0.5000000), wk =   0.0277778
        k(   26) = (   0.4166667  -0.0833333   0.4166667), wk =   0.0277778
        k(   27) = (   0.3333333   0.0000000   0.3333333), wk =   0.0138889
        k(   28) = (   0.0000000   0.5000000   0.0000000), wk =   0.0069444
        k(   29) = (  -0.0833333   0.5833333  -0.0833333), wk =   0.0277778
        k(   30) = (  -0.1666667   0.6666667  -0.1666667), wk =   0.0277778
        k(   31) = (   0.7500000  -0.2500000   0.7500000), wk =   0.0277778
        k(   32) = (   0.6666667  -0.1666667   0.6666667), wk =   0.0277778
        k(   33) = (   0.5833333  -0.0833333   0.5833333), wk =   0.0277778
        k(   34) = (   0.5000000   0.0000000   0.5000000), wk =   0.0138889
        k(   35) = (   0.0000000   0.6666667   0.0000000), wk =   0.0069444
        k(   36) = (  -0.0833333   0.7500000  -0.0833333), wk =   0.0277778
        k(   37) = (   0.8333333  -0.1666667   0.8333333), wk =   0.0277778
        k(   38) = (   0.7500000  -0.0833333   0.7500000), wk =   0.0277778
        k(   39) = (   0.6666667   0.0000000   0.6666667), wk =   0.0138889
        k(   40) = (   0.0000000   0.8333333   0.0000000), wk =   0.0069444
        k(   41) = (   0.9166667  -0.0833333   0.9166667), wk =   0.0277778
        k(   42) = (   0.8333333   0.0000000   0.8333333), wk =   0.0138889
        k(   43) = (   0.0000000  -1.0000000   0.0000000), wk =   0.0034722
        k(   44) = (  -0.1666667   0.3333333   0.0000000), wk =   0.0277778
        k(   45) = (  -0.2500000   0.4166667  -0.0833333), wk =   0.0555556
        k(   46) = (  -0.3333333   0.5000000  -0.1666667), wk =   0.0555556
        k(   47) = (   0.5833333  -0.4166667   0.7500000), wk =   0.0555556
        k(   48) = (   0.5000000  -0.3333333   0.6666667), wk =   0.0277778
        k(   49) = (  -0.1666667   0.5000000   0.0000000), wk =   0.0277778
        k(   50) = (  -0.2500000   0.5833333  -0.0833333), wk =   0.0555556
        k(   51) = (   0.6666667  -0.3333333   0.8333333), wk =   0.0555556
        k(   52) = (   0.5833333  -0.2500000   0.7500000), wk =   0.0555556
        k(   53) = (   0.5000000  -0.1666667   0.6666667), wk =   0.0555556
        k(   54) = (   0.4166667  -0.0833333   0.5833333), wk =   0.0555556
        k(   55) = (   0.3333333   0.0000000   0.5000000), wk =   0.0277778
        k(   56) = (  -0.1666667   0.6666667  -0.0000000), wk =   0.0277778
        k(   57) = (   0.7500000  -0.2500000   0.9166667), wk =   0.0555556
        k(   58) = (   0.6666667  -0.1666667   0.8333333), wk =   0.0555556
        k(   59) = (   0.5833333  -0.0833333   0.7500000), wk =   0.0555556
        k(   60) = (   0.5000000   0.0000000   0.6666667), wk =   0.0277778
        k(   61) = (   0.8333333  -0.1666667   1.0000000), wk =   0.0277778
        k(   62) = (   0.7500000  -0.0833333   0.9166667), wk =   0.0555556
        k(   63) = (   0.6666667   0.0000000   0.8333333), wk =   0.0277778
        k(   64) = (  -0.1666667  -1.0000000   0.0000000), wk =   0.0138889
        k(   65) = (   0.6666667  -0.3333333   1.0000000), wk =   0.0277778
        k(   66) = (   0.5833333  -0.2500000   0.9166667), wk =   0.0555556
        k(   67) = (   0.5000000  -0.1666667   0.8333333), wk =   0.0277778
        k(   68) = (   0.6666667  -0.1666667   1.0000000), wk =   0.0277778
        k(   69) = (   0.5833333  -0.0833333   0.9166667), wk =   0.0555556
        k(   70) = (   0.5000000   0.0000000   0.8333333), wk =   0.0277778
        k(   71) = (  -0.3333333  -1.0000000   0.0000000), wk =   0.0138889
        k(   72) = (  -0.5000000  -1.0000000   0.0000000), wk =   0.0069444

     Dense  grid:    12939 G-vectors     FFT dimensions: (  36,  36,  36)

     Largest allocated arrays     est. size (Mb)     dimensions
        Kohn-Sham Wavefunctions         0.60 Mb     (    1639,   24)
        NL pseudopotentials             0.55 Mb     (    1639,   22)
        Each V/rho on FFT grid          0.71 Mb     (   46656)
        Each G-vector array             0.10 Mb     (   12939)
        G-vector shells                 0.00 Mb     (     180)
     Largest temporary arrays     est. size (Mb)     dimensions
        Auxiliary wavefunctions         2.40 Mb     (    1639,   96)
        Each subspace H/S matrix        0.14 Mb     (      96,   96)
        Each <psi_i|beta_j> matrix      0.01 Mb     (      22,   24)

     The potential is recalculated from file :
     ./out/Si.save/charge-density.dat

     Starting wfc are   32 randomized atomic wfcs

     Band Structure Calculation
     Davidson diagonalization with overlap

     ethr =  8.42E-12,  avg # of iterations = 23.4

     total cpu time spent up to now is       84.9 secs

     End of band structure calculation

          k = 0.0000 0.0000 0.0000 (  1639 PWs)   bands (ev):

    -8.6811   3.8220   3.8220   3.8220   5.5743   6.3395   6.3395   6.3395
     9.6697  11.7311  11.7311  13.6584  13.6584  13.6584  16.0894  26.7024
    26.7024  26.7024  28.1074  28.1074  28.1074  28.4190  28.4190  33.3681

          k =-0.0833 0.0833-0.0833 (  1612 PWs)   bands (ev):

    -8.5893   2.7699   3.6761   3.6761   5.7802   6.5540   6.5540   6.8508
    10.2221  11.2038  11.2038  13.1008  14.4980  14.4980  16.9673  25.3347
    25.6364  25.6364  27.7928  27.7928  28.8938  28.8938  29.2724  33.4612

          k =-0.1667 0.1667-0.1667 (  1591 PWs)   bands (ev):

    -8.3168   1.1376   3.3689   3.3689   5.3895   6.9730   6.9730   8.1830
    10.6312  10.6312  11.0865  12.7985  16.0920  16.0920  18.6868  23.3988
    23.4696  23.4696  27.8502  27.8502  29.2287  29.2287  30.6348  33.7366

          k =-0.2500 0.2500-0.2500 (  1618 PWs)   bands (ev):

    -7.8751  -0.4645   3.0644   3.0644   4.9793   7.1768   7.1768   9.4708
    10.7215  10.7215  10.8427  14.2988  17.9225  17.9225  20.5211  21.2145
    21.2145  21.7268  28.0012  28.0012  29.5339  29.5339  31.1927  31.6791

          k =-0.3333 0.3333-0.3333 (  1616 PWs)   bands (ev):

    -7.2948  -1.9061   2.8314   2.8314   4.6727   7.0529   7.0529   9.8241
    11.3745  11.5881  11.5881  16.1658  18.4640  18.4640  19.7880  20.5412
    20.5412  23.2496  27.9895  27.9895  28.3454  29.8243  29.8243  32.1978

          k =-0.4167 0.4167-0.4167 (  1616 PWs)   bands (ev):

    -6.6740  -3.0533   2.6899   2.6899   4.4886   6.8615   6.8615   9.5425
    12.7240  12.9612  12.9612  16.4378  16.5475  16.5475  20.2924  22.6309
    22.6309  24.9009  26.3470  27.1342  27.1342  29.9533  29.9533  30.8536

          k = 0.5000-0.5000 0.5000 (  1622 PWs)   bands (ev):

    -6.3432  -3.5611   2.6428   2.6428   4.4277   6.7820   6.7820   9.4259
    13.6062  14.5788  14.5788  14.7159  14.7159  15.7219  22.3474  22.8422
    24.5586  24.5586  25.5044  25.5044  27.8633  29.7825  29.9095  29.9095

          k = 0.0000 0.1667 0.0000 (  1615 PWs)   bands (ev):

    -8.5586   2.9087   3.3579   3.3579   5.8467   6.4732   6.9448   6.9448
    10.2342  10.5526  11.8667  13.8957  13.8957  14.2827  17.4260  25.0315
    25.0315  26.5813  26.8707  27.1195  29.2156  29.2156  29.5055  34.2035

          k =-0.0833 0.2500-0.0833 (  1599 PWs)   bands (ev):

    -8.3461   1.6195   2.9777   3.1349   5.7355   6.5474   7.4837   7.8975
     9.7830  11.3429  11.5990  13.2951  14.8953  15.7430  18.9383  23.2781
    23.3179  25.5436  26.5917  26.6470  29.4876  29.6847  30.6565  34.5596

          k =-0.1667 0.3333-0.1667 (  1610 PWs)   bands (ev):

    -7.9596   0.0631   2.6619   2.7748   5.6391   6.7015   7.8089   8.3461
    10.3501  11.5219  11.6865  13.8604  16.5799  17.6490  20.7023  21.0274
    21.3448  23.7405  26.6371  26.8223  29.5226  30.0611  31.7816  32.1148

          k =-0.2500 0.4167-0.2500 (  1606 PWs)   bands (ev):

    -7.4211  -1.4114   2.4000   2.4593   5.3853   6.7150   7.7150   8.9784
    11.0193  11.8793  12.1984  15.6140  17.9640  19.0331  19.3770  20.0262
    21.4475  23.3652  26.8072  27.1058  28.8636  29.5437  30.4161  32.5702

          k =-0.3333 0.5000-0.3333 (  1616 PWs)   bands (ev):

    -6.7959  -2.6631   2.0904   2.3842   5.1820   6.5649   7.4233   9.8253
    11.1147  13.2240  13.4558  16.1706  16.3191  18.4556  20.0254  21.0949
    22.3795  25.2345  26.3482  26.8341  27.2557  28.4678  30.4825  31.4365

          k = 0.5833-0.4167 0.5833 (  1615 PWs)   bands (ev):

    -6.3117  -3.4361   1.8736   2.4343   5.0888   6.5151   7.1701  10.0432
    12.1818  14.1426  14.3654  15.0697  15.4223  17.2017  21.6389  23.1476
    23.4130  24.6140  25.4381  26.1718  27.8957  28.4919  29.1126  30.7104

          k = 0.5000-0.3333 0.5000 (  1616 PWs)   bands (ev):

    -6.4299  -3.2592   1.7670   2.5979   5.1155   6.6370   7.0493  10.1019
    12.4443  12.6125  14.3105  15.3379  16.8609  16.9071  20.7333  22.5976
    24.2212  24.2599  25.8083  26.5482  27.2770  28.4999  29.5833  30.4076

          k = 0.4167-0.2500 0.4167 (  1611 PWs)   bands (ev):

    -7.0068  -2.2781   1.7861   2.8555   5.2585   6.9151   7.0607  10.0158
    11.1391  11.4765  13.7606  15.8676  17.4337  18.8655  19.5108  20.4475
    22.1559  24.4794  26.7704  27.2169  27.3080  29.2690  30.0906  31.5430

          k = 0.3333-0.1667 0.3333 (  1605 PWs)   bands (ev):

    -7.6159  -0.9361   1.9458   3.1777   5.5126   7.0869   7.2105   9.2770
    10.1197  11.3210  12.5365  14.9548  17.5247  18.9286  19.4551  21.0633
    21.6173  22.5050  26.5949  27.2062  29.7629  29.9662  30.0845  32.7394

          k = 0.2500-0.0833 0.2500 (  1600 PWs)   bands (ev):

    -8.1074   0.5660   2.2668   3.5104   5.8631   6.8906   7.0628   8.5857
     9.8482  11.0505  12.0260  13.5032  15.6363  17.6695  19.8696  21.0362
    23.3530  23.7094  26.2843  27.1638  29.4395  29.9023  31.7718  32.8646

          k = 0.1667-0.0000 0.1667 (  1592 PWs)   bands (ev):

    -8.4371   1.9730   2.8506   3.7340   6.1422   6.4719   6.5677   7.8495
    10.3272  10.8183  11.2408  13.5146  14.1706  15.9280  18.1196  23.3425
    24.7989  25.6711  26.2884  27.4805  29.0985  29.5945  30.3771  34.2354

          k = 0.0000 0.3333 0.0000 (  1607 PWs)   bands (ev):

    -8.1940   1.5059   2.5495   2.5495   4.9686   7.0614   8.1637   8.1637
     9.4130  11.9724  12.2730  14.6140  14.6140  14.9980  20.2810  22.7173
    22.7173  24.8131  24.8190  27.2311  30.1030  30.1391  30.1391  34.7924

          k =-0.0833 0.4167-0.0833 (  1616 PWs)   bands (ev):

    -7.8659   0.4214   2.1234   2.2020   4.9391   6.7396   8.2161   8.6972
    10.4405  12.3750  12.8546  14.2909  15.7084  16.7379  20.9330  21.0775
    21.9881  24.3340  24.3420  26.6664  29.6033  30.4643  31.3044  32.5958

          k =-0.1667 0.5000-0.1667 (  1611 PWs)   bands (ev):

    -7.3777  -0.9135   1.5912   1.9826   5.0712   7.0419   7.8752   8.7726
    11.8456  12.8908  12.8911  15.3229  17.2432  18.6889  18.9355  19.4861
    23.0985  24.3528  24.5021  25.9963  28.5394  30.0014  30.6811  32.1663

          k =-0.2500 0.5833-0.2500 (  1610 PWs)   bands (ev):

    -6.7747  -2.1688   1.1066   1.9078   4.9942   7.4784   8.2111   8.4957
    12.1254  13.7457  14.0358  16.0051  16.2261  18.5594  19.8531  21.2075
    21.9825  24.7742  25.2767  26.3316  26.7769  28.5864  30.4780  30.8393

          k = 0.6667-0.3333 0.6667 (  1607 PWs)   bands (ev):

    -6.2073  -3.1019   0.7323   1.9794   4.9906   7.2905   8.1600   9.6037
    11.8919  14.2502  14.3696  15.5771  15.6732  19.4219  20.9623  22.0664
    22.8717  23.9658  24.9441  26.1150  26.8131  28.5614  29.7590  30.3433

          k = 0.5833-0.2500 0.5833 (  1602 PWs)   bands (ev):

    -6.0976  -3.2590   0.4960   2.1887   5.1583   7.1978   7.9073  10.8555
    11.6466  12.4335  13.5942  16.9560  17.3672  18.0630  20.5318  22.9401
    23.6171  24.0687  24.9824  25.3105  27.8729  28.2832  29.0991  30.1578

          k = 0.5000-0.1667 0.5000 (  1610 PWs)   bands (ev):

    -6.5774  -2.5076   0.4239   2.5146   5.4905   7.2358   7.7614  10.1489
    10.8851  12.2327  14.2092  16.1686  17.6379  19.2757  19.3084  20.9768
    23.5808  25.1670  25.3931  25.8131  26.9390  28.0653  30.1132  30.7083

          k = 0.4167-0.0833 0.4167 (  1613 PWs)   bands (ev):

    -7.1942  -1.3435   0.5652   2.9152   5.9273   7.3658   7.6186   8.9401
     9.7872  12.6624  14.4566  15.1955  16.8573  17.9713  20.7786  21.1469
    22.4557  24.1935  24.5608  25.8005  28.6268  29.8055  30.1367  31.4214

          k = 0.3333 0.0000 0.3333 (  1604 PWs)   bands (ev):

    -7.7258  -0.1888   1.0997   3.3038   6.2945   7.1507   7.2529   8.4147
     9.4629  12.2659  13.2124  14.2632  16.1201  18.6867  19.4405  21.3839
    23.1020  23.9467  24.2276  26.1140  29.7625  30.1846  31.1242  32.7692

          k = 0.0000 0.5000 0.0000 (  1612 PWs)   bands (ev):

    -7.5968   0.0693   1.8172   1.8172   4.1753   5.8706   9.5508   9.5508
    10.6627  12.9490  13.8184  15.8043  15.8043  16.0003  20.4905  20.4905
    22.4698  23.0266  23.5784  27.9497  29.5786  30.5865  30.5865  32.2084

          k =-0.0833 0.5833-0.0833 (  1617 PWs)   bands (ev):

    -7.1645  -0.8179   1.2398   1.5618   4.2248   5.5440   9.5862   9.9778
    12.0765  13.4725  14.4631  15.7850  16.8487  17.9357  18.8936  19.2023
    22.1108  22.7237  25.0167  27.6712  28.1747  29.9291  29.9699  30.8334

          k =-0.1667 0.6667-0.1667 (  1620 PWs)   bands (ev):

    -6.6018  -1.8329   0.4767   1.4567   4.3098   6.2225   9.2834   9.8509
    13.3899  14.5215  14.5506  16.2226  16.2603  18.2088  19.1067  20.5118
    22.3788  22.6991  25.0387  25.8195  28.0603  28.9136  29.0879  29.4722

          k = 0.7500-0.2500 0.7500 (  1617 PWs)   bands (ev):

    -6.0120  -2.7321  -0.1460   1.5072   4.3368   7.5242   9.0465   9.5085
    13.0433  14.2903  15.2391  15.8833  16.0724  19.7498  21.0174  21.8888
    22.2584  22.7918  23.2090  25.5888  27.0936  28.0998  28.3333  29.9840

          k = 0.6667-0.1667 0.6667 (  1607 PWs)   bands (ev):

    -5.7220  -3.1131  -0.5554   1.7087   4.5281   8.5145   9.1771   9.4693
    11.8076  12.4374  14.8607  17.3081  17.8473  20.0875  20.4650  22.0623
    22.2785  23.3729  23.9491  25.1552  27.3787  27.7379  28.1201  29.8130

          k = 0.5833-0.0833 0.5833 (  1611 PWs)   bands (ev):

    -6.0517  -2.6525  -0.7049   2.0444   4.9104   8.5488   8.8857  10.0768
    10.8703  11.3278  14.9858  17.2336  18.4708  19.6949  19.7707  21.6599
    22.2524  23.9506  25.2084  25.7725  27.3323  27.7820  28.6808  29.0986

          k = 0.5000 0.0000 0.5000 (  1604 PWs)   bands (ev):

    -6.6417  -1.8716  -0.4184   2.4758   5.4451   8.3647   8.4079   8.9284
     9.9095  12.8517  15.1262  15.8010  16.8023  19.4314  20.7059  21.2946
    22.2854  24.5058  24.7131  26.3029  26.9702  28.8226  29.3808  29.7588

          k = 0.0000 0.6667 0.0000 (  1624 PWs)   bands (ev):

    -6.7903  -1.3616   1.2646   1.2646   3.5933   4.6800  10.9921  10.9921
    12.3414  13.8923  15.5764  17.1286  17.1286  17.4785  18.7874  18.7874
    20.2863  21.6973  26.3801  27.4372  28.5108  28.5108  28.7621  30.3268

          k =-0.0833 0.7500-0.0833 (  1618 PWs)   bands (ev):

    -6.2826  -2.0975   0.6306   1.1174   3.7042   4.6719  11.0723  11.3050
    13.6747  14.7959  15.5566  16.3854  17.5126  17.5765  19.0698  19.9553
    20.1392  21.7501  25.2966  26.5259  27.1339  27.5957  28.2315  30.2966

          k = 0.8333-0.1667 0.8333 (  1619 PWs)   bands (ev):

    -5.7228  -2.7624  -0.2800   1.1295   3.7978   5.7412  10.7857  11.0632
    13.6587  14.4742  15.8547  16.3521  17.0961  18.9050  19.9440  21.2133
    21.4417  22.1692  23.5112  25.6850  26.0755  26.4927  27.8139  29.9682

          k = 0.7500-0.0833 0.7500 (  1620 PWs)   bands (ev):

    -5.3642  -3.1052  -0.9796   1.2992   3.9831   7.2779  10.5323  10.6646
    12.0465  12.6551  16.7467  17.4663  18.1803  19.7859  20.2533  20.4748
    22.1312  23.2028  23.6068  25.3534  25.5338  26.3138  27.5026  29.6934

          k = 0.6667 0.0000 0.6667 (  1612 PWs)   bands (ev):

    -5.5464  -2.9075  -1.2204   1.6145   4.3599   8.8981  10.0344  10.3107
    10.5477  11.3151  16.8757  17.0806  18.8215  20.0101  20.3308  21.1800
    22.0285  22.7173  25.3311  25.4636  25.8137  26.1755  29.6251  29.7404

          k = 0.0000 0.8333 0.0000 (  1628 PWs)   bands (ev):

    -5.8461  -2.7019   0.9246   0.9246   3.2602   3.9196  12.4467  12.4467
    13.8982  15.0968  16.1663  16.1663  16.4632  18.3244  19.4665  20.0264
    20.0264  21.4792  24.7312  25.5459  25.5459  26.0312  28.3629  30.6870

          k = 0.9167-0.0833 0.9167 (  1622 PWs)   bands (ev):

    -5.3892  -3.2137   0.3273   0.8911   3.4255   4.2517  12.5467  12.6264
    14.0700  14.7748  15.6470  16.3270  17.2340  18.0635  19.6095  21.3760
    21.5365  22.0369  23.2968  24.3059  24.4298  25.5718  28.1767  29.7466

          k = 0.8333 0.0000 0.8333 (  1614 PWs)   bands (ev):

    -5.1751  -3.3340  -0.5347   1.0188   3.6226   5.5862  12.0222  12.1883
    12.4470  13.3094  16.6736  18.0289  18.3837  18.4024  19.5774  19.7978
    22.4010  22.8203  23.8801  24.1618  24.9149  25.7530  27.1927  28.9079

          k = 0.0000-1.0000 0.0000 (  1604 PWs)   bands (ev):

    -5.2065  -3.4786   0.8101   0.8101   3.1616   3.6534  13.4666  13.4666
    14.7772  15.0571  15.0571  16.2900  16.3724  16.7945  21.4815  21.8845
    21.9459  21.9459  23.1965  23.2815  23.2815  23.9783  29.2124  29.9378

          k =-0.1667 0.3333 0.0000 (  1603 PWs)   bands (ev):

    -8.0759   0.8090   1.9956   3.0892   5.7187   6.8085   7.8524   7.9872
     9.9684  11.6405  12.3378  13.9345  15.0085  17.1203  20.5063  21.0201
    22.8379  24.7430  25.7665  26.1857  28.9446  30.8250  31.5509  33.1375

          k =-0.2500 0.4167-0.0833 (  1607 PWs)   bands (ev):

    -7.6379  -0.4547   1.3983   2.8042   5.8888   6.8782   7.7910   8.2322
    10.5252  12.1808  13.1229  14.5561  16.6233  18.7573  18.9815  21.2662
    22.3058  23.8469  25.0682  26.3002  28.8271  30.2439  31.3274  32.5832

          k =-0.3333 0.5000-0.1667 (  1604 PWs)   bands (ev):

    -7.0634  -1.7853   1.1110   2.4540   5.8056   6.6475   8.1379   8.6423
    11.3699  12.2108  14.2347  15.5836  17.1878  18.5559  19.4354  21.2126
    21.8581  24.7978  25.2247  26.5692  27.6291  28.7598  30.5272  31.2409

          k = 0.5833-0.4167 0.7500 (  1612 PWs)   bands (ev):

    -6.4502  -2.8860   0.9796   2.1898   5.7211   6.3407   8.0322   9.8713
    11.6102  12.9961  14.2718  15.7588  16.6880  18.8654  20.0668  21.5940
    23.4873  24.5469  25.6049  26.3622  27.1634  27.7919  29.9779  30.3228

          k = 0.5000-0.3333 0.6667 (  1602 PWs)   bands (ev):

    -6.1243  -3.3782   0.9437   2.0914   5.7026   6.2124   7.9754  10.7001
    11.6121  12.9310  14.5608  15.1834  17.2874  17.8146  21.6429  22.2496
    23.8607  24.2173  24.7934  25.8910  27.9804  28.2639  28.7193  30.2634

          k =-0.1667 0.5000 0.0000 (  1617 PWs)   bands (ev):

    -7.4856  -0.3460   1.2397   2.0845   4.9700   6.3325   8.3007   9.3677
    11.2303  12.9495  13.8255  14.8127  16.3830  18.1100  18.8411  20.6822
    22.8009  23.6028  24.3873  26.5862  28.7211  29.8850  31.1602  32.0631

          k =-0.2500 0.5833-0.0833 (  1611 PWs)   bands (ev):

    -6.9579  -1.3897   0.6223   1.7497   5.2091   6.6817   7.9378   9.6644
    12.0814  13.5281  14.6247  15.5413  17.0629  17.9767  19.0013  20.6661
    22.4192  23.9771  24.8486  26.7900  27.1877  28.6632  29.5314  31.1406

          k = 0.6667-0.3333 0.8333 (  1617 PWs)   bands (ev):

    -6.3495  -2.4451   0.2277   1.5111   5.2350   7.3794   8.0222   9.5644
    12.6292  13.6784  14.6191  16.0767  16.7089  18.5594  20.5370  21.7662
    22.3826  23.6673  24.5057  25.7278  27.4872  28.1393  28.7030  30.0954

          k = 0.5833-0.2500 0.7500 (  1607 PWs)   bands (ev):

    -5.8864  -3.1287  -0.0432   1.4916   5.3561   7.1209   9.2923   9.5914
    11.5095  13.6145  14.8281  15.4610  17.9029  19.8942  20.8255  21.7340
    22.7675  23.2331  24.8775  25.4276  26.9344  27.9165  28.9101  29.6341

          k = 0.5000-0.1667 0.6667 (  1605 PWs)   bands (ev):

    -6.0077  -2.9517  -0.1824   1.6863   5.6431   6.9219   9.2575   9.8695
    11.2517  12.6948  14.2729  16.9052  18.2959  19.0091  20.0278  22.2330
    22.8068  23.7998  24.8671  25.6959  27.0602  28.0270  28.8609  29.6735

          k = 0.4167-0.0833 0.5833 (  1610 PWs)   bands (ev):

    -6.5670  -2.0876  -0.1200   2.0446   6.0749   6.8340   8.3891   9.2719
    11.2659  12.8383  14.7056  16.3447  16.9846  18.9067  20.0319  21.5768
    22.6239  24.1008  25.1642  26.1837  27.1824  28.1354  28.7813  30.0610

          k = 0.3333 0.0000 0.5000 (  1606 PWs)   bands (ev):

    -7.1588  -1.1199   0.3324   2.4797   6.4499   6.6965   7.5683   8.9152
    10.5105  13.3410  14.3972  15.2226  16.7439  17.7316  20.1221  21.6062
    22.8024  23.4040  25.2797  25.5043  28.3868  28.6779  30.2724  31.2251

          k =-0.1667 0.6667-0.0000 (  1626 PWs)   bands (ev):

    -6.6925  -1.5304   0.6878   1.2016   4.4017   5.2782   9.5331  10.9229
    12.7387  14.4246  15.0882  16.1779  17.1476  17.9973  18.3363  20.0977
    20.9974  22.7122  25.7573  26.5599  27.7998  28.5349  29.1032  30.0004

          k = 0.7500-0.2500 0.9167 (  1621 PWs)   bands (ev):

    -6.1195  -2.3044  -0.0287   0.9362   4.6465   6.0130   9.1337  11.1852
    13.2501  14.2673  15.7716  16.1772  17.0668  17.9270  19.8589  20.8590
    22.1523  22.9302  24.1836  25.3522  26.5208  27.9480  28.6978  30.2772

          k = 0.6667-0.1667 0.8333 (  1616 PWs)   bands (ev):

    -5.6052  -2.9259  -0.6463   0.9444   4.7790   7.4042   8.7965  10.9987
    11.7967  14.3524  15.6928  16.0759  18.1822  19.5726  20.8563  21.3313
    22.0104  22.6961  23.8897  25.3155  26.1259  26.8951  27.8998  30.5690

          k = 0.5833-0.0833 0.7500 (  1614 PWs)   bands (ev):

    -5.5426  -2.9749  -0.9899   1.1668   5.0652   8.2500   9.2804  10.0116
    10.9468  12.8016  16.0066  17.1567  18.7151  19.6493  20.7554  21.2650
    22.2807  22.9941  24.1776  25.3855  25.9414  27.6234  28.8650  29.1733

          k = 0.5000 0.0000 0.6667 (  1621 PWs)   bands (ev):

    -5.9956  -2.4903  -0.8906   1.5571   5.5177   7.9385   8.6035  10.3108
    11.1578  11.7403  16.0931  16.4146  18.2355  19.4461  20.5417  21.6447
    21.8518  23.9852  24.9678  25.3622  27.0184  27.5543  28.3664  29.9834

          k = 0.8333-0.1667 1.0000 (  1617 PWs)   bands (ev):

    -5.7755  -2.7075   0.3797   0.6103   4.0562   4.6325  10.8730  12.4394
    13.7196  14.7099  15.9145  16.4780  17.1812  18.3174  19.5141  19.8113
    21.7926  22.1252  23.7698  24.7293  26.7773  27.0455  27.3826  29.6045

          k = 0.7500-0.0833 0.9167 (  1620 PWs)   bands (ev):

    -5.3148  -3.1373  -0.4264   0.5525   4.3493   5.6953  10.4710  11.9315
    12.8320  14.5903  15.7896  17.2722  18.3361  18.7352  19.9230  20.8457
    21.1647  22.7846  23.9501  24.4857  26.0231  26.2549  27.1183  28.6699

          k = 0.6667 0.0000 0.8333 (  1620 PWs)   bands (ev):

    -5.2179  -3.1529  -1.0423   0.7719   4.6241   7.2933   9.9936  10.3456
    12.2966  13.2363  16.8197  17.9128  18.4132  19.1053  20.1807  20.8255
    22.0923  23.0064  23.5643  25.1243  25.9454  26.1754  28.1770  28.6542

          k =-0.1667-1.0000 0.0000 (  1622 PWs)   bands (ev):

    -5.1744  -3.4046   0.3340   0.3543   3.9420   4.4184  12.1427  12.4482
    13.8723  14.6846  15.7284  16.4177  18.0672  18.0758  20.6107  20.6348
    21.4205  22.0563  24.0124  24.3454  24.4885  24.8341  28.0573  28.7694

          k = 0.6667-0.3333 1.0000 (  1610 PWs)   bands (ev):

    -6.4118  -1.9723  -0.1993   1.2702   5.9759   6.6906   7.5305  10.7056
    12.1655  13.3244  15.6445  16.3011  16.7451  18.5559  19.4029  21.3650
    22.5976  24.1688  24.4280  25.5527  27.0745  27.6947  28.6544  30.4925

          k = 0.5833-0.2500 0.9167 (  1611 PWs)   bands (ev):

    -5.8378  -2.6666  -0.5969   0.8685   6.2381   6.9794   7.9379  11.0075
    11.4218  13.4348  15.6211  16.7415  18.0562  18.7230  20.4613  21.7248
    22.7154  23.4319  24.4872  24.9538  26.2943  26.9284  28.8227  30.4772

          k = 0.5000-0.1667 0.8333 (  1610 PWs)   bands (ev):

    -5.5387  -3.0345  -0.6967   0.7176   6.3035   6.8155   9.2687   9.8174
    11.1420  14.5202  15.3324  15.8552  19.6041  19.7871  20.3214  21.3311
    21.7134  23.6780  24.5710  24.8923  25.8121  28.0157  28.6943  28.8031

          k = 0.6667-0.1667 1.0000 (  1618 PWs)   bands (ev):

    -5.5891  -2.7702  -0.4399   0.2631   5.6381   6.1923   8.6816  11.6021
    12.4831  14.2363  16.3543  17.0605  17.3568  18.9329  19.5144  21.3655
    22.6767  23.4014  23.7028  24.3867  25.8479  26.8495  28.0902  30.0025

          k = 0.5833-0.0833 0.9167 (  1615 PWs)   bands (ev):

    -5.2332  -3.0612  -0.8442   0.0822   6.0145   7.4302   8.3836   9.7815
    12.8058  14.7798  15.6506  17.1847  18.3283  19.9722  20.0757  21.1556
    22.2871  22.8536  23.4648  24.9658  25.7656  27.3080  27.8668  30.0300

          k = 0.5000 0.0000 0.8333 (  1612 PWs)   bands (ev):

    -5.3669  -2.9370  -0.9891   0.3412   6.3332   7.6807   8.2105   9.5192
    12.3949  13.7164  16.6103  17.3538  17.6434  19.3392  20.8574  21.5533
    22.7500  23.1799  23.3073  24.3025  26.1228  27.7141  28.3361  30.0212

          k =-0.3333-1.0000 0.0000 (  1618 PWs)   bands (ev):

    -5.1065  -3.2306  -0.3727  -0.2487   5.5216   6.0293   9.9209  10.2208
    13.8618  14.6480  15.8780  16.6197  19.3576  19.4151  20.5210  20.5556
    21.0346  21.6123  24.9241  25.1903  26.0567  26.1502  27.4749  27.6911

          k =-0.5000-1.0000 0.0000 (  1628 PWs)   bands (ev):

    -5.0705  -3.1242  -0.6822  -0.4852   6.9533   7.7928   8.2453   8.2638
    13.8877  14.6570  15.9266  16.7483  19.1142  19.1481  20.5360  21.0279
    22.5121  22.5817  23.6694  24.1069  26.2895  26.7202  29.9137  30.2156

     the Fermi energy is    13.0723 ev

     Writing output data file Si.save

     init_run     :      0.32s CPU      0.32s WALL (       1 calls)
     electrons    :     83.69s CPU     84.21s WALL (       1 calls)

     Called by init_run:
     wfcinit      :      0.00s CPU      0.00s WALL (       1 calls)
     potinit      :      0.04s CPU      0.04s WALL (       1 calls)

     Called by electrons:
     c_bands      :     83.36s CPU     83.87s WALL (       1 calls)
     v_of_rho     :      0.03s CPU      0.03s WALL (       1 calls)

     Called by c_bands:
     init_us_2    :      0.10s CPU      0.10s WALL (      72 calls)
     cegterg      :     76.04s CPU     76.51s WALL (     114 calls)

     Called by *egterg:
     h_psi        :     59.19s CPU     59.54s WALL (    1869 calls)
     g_psi        :      0.16s CPU      0.16s WALL (    1683 calls)
     cdiaghg      :      4.39s CPU      4.40s WALL (    1755 calls)

     Called by h_psi:
     add_vuspsi   :      1.61s CPU      1.61s WALL (    1869 calls)

     General routines
     calbec       :      1.83s CPU      1.84s WALL (    1869 calls)
     fft          :      0.02s CPU      0.02s WALL (      10 calls)
     fftw         :     52.97s CPU     53.29s WALL (   46262 calls)
     davcio       :      0.01s CPU      0.01s WALL (      72 calls)

     Parallel routines
     fft_scatter  :      1.28s CPU      1.27s WALL (   46272 calls)

     PWSCF        :  1m25.75s CPU     1m26.32s WALL


   This run was terminated on:   4: 4: 9  15Feb2023            

=------------------------------------------------------------------------------=
   JOB DONE.
=------------------------------------------------------------------------------=
