
     Program PWSCF v.5.1 starts on 15Feb2023 at  4: 1:39 

     This program is part of the open-source Quantum ESPRESSO suite
     for quantum simulation of materials; please cite
         "P. Giannozzi et al., J. Phys.:Condens. Matter 21 395502 (2009);
          URL http://www.quantum-espresso.org", 
     in publications or presentations arising from this work. More details at
     http://www.quantum-espresso.org/quote

     Parallel version (MPI), running on     1 processors
     Waiting for input...
     Reading input from standard input
Warning: card   SI    0.0000000000D0   0.5000000000D0   0.5000000000D0 ignored
Warning: card   SI    0.2500000000D0   0.7500000000D0   0.7500000000D0 ignored
Warning: card   SI   -0.5000000000D0   0.0000000000D0   0.5000000000D0 ignored
Warning: card   SI   -0.2500000000D0   0.2500000000D0   0.7500000000D0 ignored
Warning: card   SI   -0.5000000000D0   0.5000000000D0   0.10000000000D0 ignored
Warning: card   SI   -0.2500000000D0   0.7500000000D0   1.25000000000D0 ignored

     Current dimensions of program PWSCF are:
     Max number of different atomic species (ntypx) = 10
     Max number of k-points (npk) =  40000
     Max angular momentum in pseudopotentials (lmaxx) =  3
               file Si.pbe-mt_fhi.UPF: wavefunction(s)  4f renormalized
               file P.pbe-mt_fhi.UPF: wavefunction(s)  4f renormalized

     Subspace diagonalization in iterative solution of the eigenvalue problem:
     a serial algorithm will be used


     G-vector sticks info
     --------------------
     sticks:   dense  smooth     PW     G-vecs:    dense   smooth      PW
     Sum         733     733    211                12939    12939    2109



     bravais-lattice index     =            2
     lattice parameter (alat)  =      10.2623  a.u.
     unit-cell volume          =     270.1967 (a.u.)^3
     number of atoms/cell      =            2
     number of atomic types    =            2
     number of electrons       =        19.00
     number of Kohn-Sham states=           24
     kinetic-energy cutoff     =      50.0000  Ry
     charge density cutoff     =     200.0000  Ry
     convergence threshold     =      1.6E-09
     mixing beta               =       0.3000
     number of iterations used =            8  plain     mixing
     Exchange-correlation      = PBE ( 1  4  3  4 0)

     celldm(1)=  10.262347  celldm(2)=   0.000000  celldm(3)=   0.000000
     celldm(4)=   0.000000  celldm(5)=   0.000000  celldm(6)=   0.000000

     crystal axes: (cart. coord. in units of alat)
               a(1) = (  -0.500000   0.000000   0.500000 )  
               a(2) = (   0.000000   0.500000   0.500000 )  
               a(3) = (  -0.500000   0.500000   0.000000 )  

     reciprocal axes: (cart. coord. in units 2 pi/alat)
               b(1) = ( -1.000000 -1.000000  1.000000 )  
               b(2) = (  1.000000  1.000000  1.000000 )  
               b(3) = ( -1.000000  1.000000 -1.000000 )  


     PseudoPot. # 1 for Si read from file:
     /home/acedemo/psudo/Si.pbe-mt_fhi.UPF
     MD5 check sum: 259057c2adf9952f9ced37ae3d9e311d
     Pseudo is Norm-conserving, Zval =  4.0
     Generated using FHI98PP, converted with fhi2upf.x v.5.0.2
     Using radial grid of  495 points,  3 beta functions with: 
                l(1) =   0
                l(2) =   1
                l(3) =   3

     PseudoPot. # 2 for  P read from file:
     /home/acedemo/psudo/P.pbe-mt_fhi.UPF
     MD5 check sum: 7191c457fb61afa58d0f00d0e4a443c1
     Pseudo is Norm-conserving, Zval =  5.0
     Generated using FHI98PP, converted with fhi2upf.x v.5.0.2
     Using radial grid of  499 points,  3 beta functions with: 
                l(1) =   0
                l(2) =   1
                l(3) =   3

     atomic species   valence    mass     pseudopotential
        Si             4.00    28.08550     Si( 1.00)
        P              5.00    30.97376      P( 1.00)

     24 Sym. Ops. (no inversion) found



   Cartesian axes

     site n.     atom                  positions (alat units)
         1           P   tau(   1) = (   0.0000000   0.0000000   0.0000000  )
         2           Si  tau(   2) = (   0.2500000   0.2500000   0.2500000  )

     number of k points=    10  Marzari-Vanderbilt smearing, width (Ry)=  0.0500
                       cart. coord. in units 2pi/alat
        k(    1) = (   0.0000000   0.0000000   0.0000000), wk =   0.0160000
        k(    2) = (  -0.2000000   0.2000000  -0.2000000), wk =   0.1280000
        k(    3) = (  -0.4000000   0.4000000  -0.4000000), wk =   0.1280000
        k(    4) = (   0.0000000   0.4000000   0.0000000), wk =   0.0960000
        k(    5) = (  -0.2000000   0.6000000  -0.2000000), wk =   0.3840000
        k(    6) = (   0.6000000  -0.2000000   0.6000000), wk =   0.3840000
        k(    7) = (   0.4000000   0.0000000   0.4000000), wk =   0.1920000
        k(    8) = (   0.0000000   0.8000000   0.0000000), wk =   0.0960000
        k(    9) = (   0.8000000   0.0000000   0.8000000), wk =   0.1920000
        k(   10) = (   0.6000000  -0.2000000   1.0000000), wk =   0.3840000

     Dense  grid:    12939 G-vectors     FFT dimensions: (  36,  36,  36)

     Largest allocated arrays     est. size (Mb)     dimensions
        Kohn-Sham Wavefunctions         0.60 Mb     (    1639,   24)
        NL pseudopotentials             0.55 Mb     (    1639,   22)
        Each V/rho on FFT grid          0.71 Mb     (   46656)
        Each G-vector array             0.10 Mb     (   12939)
        G-vector shells                 0.00 Mb     (     180)
     Largest temporary arrays     est. size (Mb)     dimensions
        Auxiliary wavefunctions         2.40 Mb     (    1639,   96)
        Each subspace H/S matrix        0.14 Mb     (      96,   96)
        Each <psi_i|beta_j> matrix      0.01 Mb     (      22,   24)
        Arrays for rho mixing           5.70 Mb     (   46656,    8)

     Initial potential from superposition of free atoms

     starting charge    8.99918, renormalised to   19.00000
     Starting wfc are   32 randomized atomic wfcs

     total cpu time spent up to now is        1.6 secs

     per-process dynamical memory:    20.5 Mb

     Self-consistent Calculation

     iteration #  1     ecut=    50.00 Ry     beta=0.30
     Davidson diagonalization with overlap
     ethr =  1.00E-02,  avg # of iterations =  4.4

     total cpu time spent up to now is        6.5 secs

     total energy              =     -13.27656004 Ry
     Harris-Foulkes estimate   =     -15.63521107 Ry
     estimated scf accuracy    <       5.90699193 Ry

     iteration #  2     ecut=    50.00 Ry     beta=0.30
     Davidson diagonalization with overlap
     ethr =  1.00E-02,  avg # of iterations =  1.9

     total cpu time spent up to now is        9.4 secs

     total energy              =     -13.39984860 Ry
     Harris-Foulkes estimate   =     -13.77335815 Ry
     estimated scf accuracy    <       0.66575627 Ry

     iteration #  3     ecut=    50.00 Ry     beta=0.30
     Davidson diagonalization with overlap
     ethr =  3.50E-03,  avg # of iterations =  2.0

     total cpu time spent up to now is       12.4 secs

     total energy              =     -13.55052940 Ry
     Harris-Foulkes estimate   =     -13.55599766 Ry
     estimated scf accuracy    <       0.00858340 Ry

     iteration #  4     ecut=    50.00 Ry     beta=0.30
     Davidson diagonalization with overlap
     ethr =  4.52E-05,  avg # of iterations =  3.2

     total cpu time spent up to now is       16.2 secs

     total energy              =     -13.55370411 Ry
     Harris-Foulkes estimate   =     -13.55510742 Ry
     estimated scf accuracy    <       0.00277206 Ry

     iteration #  5     ecut=    50.00 Ry     beta=0.30
     Davidson diagonalization with overlap
     ethr =  1.46E-05,  avg # of iterations =  1.3

     total cpu time spent up to now is       18.9 secs

     total energy              =     -13.55427248 Ry
     Harris-Foulkes estimate   =     -13.55424977 Ry
     estimated scf accuracy    <       0.00008709 Ry

     iteration #  6     ecut=    50.00 Ry     beta=0.30
     Davidson diagonalization with overlap
     ethr =  4.58E-07,  avg # of iterations =  2.1

     total cpu time spent up to now is       21.7 secs

     total energy              =     -13.55427522 Ry
     Harris-Foulkes estimate   =     -13.55428083 Ry
     estimated scf accuracy    <       0.00001269 Ry

     iteration #  7     ecut=    50.00 Ry     beta=0.30
     Davidson diagonalization with overlap
     ethr =  6.68E-08,  avg # of iterations =  1.1

     total cpu time spent up to now is       23.8 secs

     total energy              =     -13.55427753 Ry
     Harris-Foulkes estimate   =     -13.55427742 Ry
     estimated scf accuracy    <       0.00000022 Ry

     iteration #  8     ecut=    50.00 Ry     beta=0.30
     Davidson diagonalization with overlap
     ethr =  1.13E-09,  avg # of iterations =  2.0

     total cpu time spent up to now is       26.2 secs

     total energy              =     -13.55427763 Ry
     Harris-Foulkes estimate   =     -13.55427764 Ry
     estimated scf accuracy    <       0.00000006 Ry

     iteration #  9     ecut=    50.00 Ry     beta=0.30
     Davidson diagonalization with overlap
     ethr =  3.29E-10,  avg # of iterations =  1.2

     total cpu time spent up to now is       28.8 secs

     total energy              =     -13.55427766 Ry
     Harris-Foulkes estimate   =     -13.55427764 Ry
     estimated scf accuracy    <          4.8E-09 Ry

     iteration # 10     ecut=    50.00 Ry     beta=0.30
     Davidson diagonalization with overlap
     ethr =  2.52E-11,  avg # of iterations =  2.0

     total cpu time spent up to now is       31.8 secs

     total energy              =     -13.55427766 Ry
     Harris-Foulkes estimate   =     -13.55427766 Ry
     estimated scf accuracy    <          3.2E-09 Ry

     iteration # 11     ecut=    50.00 Ry     beta=0.30
     Davidson diagonalization with overlap
     ethr =  1.68E-11,  avg # of iterations =  1.4

     total cpu time spent up to now is       34.0 secs

     End of self-consistent calculation

          k = 0.0000 0.0000 0.0000 (  1639 PWs)   bands (ev):

    -8.6811   3.8220   3.8220   3.8220   5.5743   6.3395   6.3395   6.3395
     9.6697  11.7311  11.7311  13.6584  13.6584  13.6584  16.0894  26.7024
    26.7024  26.7024  28.1074  28.1074  28.1074  28.4190  28.4190  33.3681

          k =-0.2000 0.2000-0.2000 (  1606 PWs)   bands (ev):

    -8.1594   0.4839   3.2412   3.2412   5.2163   7.0998   7.0998   8.7230
    10.5677  10.5677  11.0611  13.2423  16.8118  16.8118  19.4612  22.5495
    22.5495  22.6399  27.9104  27.9104  29.3498  29.3498  31.0934  32.9145

          k =-0.4000 0.4000-0.4000 (  1616 PWs)   bands (ev):

    -6.7910  -2.8587   2.7106   2.7106   4.5155   6.8942   6.8942   9.5914
    12.4526  12.6576  12.6576  16.5759  16.9437  16.9437  19.9674  22.1786
    22.1786  24.8914  26.4092  27.4159  27.4159  29.9515  29.9515  31.0262

          k = 0.0000 0.4000 0.0000 (  1607 PWs)   bands (ev):

    -7.9822   0.9323   2.2389   2.2389   4.6306   6.6736   8.7081   8.7081
     9.7702  12.5111  12.6932  15.0365  15.0365  15.3513  21.5625  21.8040
    21.8040  23.8635  24.1079  27.4713  30.0766  30.4005  30.4005  33.7428

          k =-0.2000 0.6000-0.2000 (  1619 PWs)   bands (ev):

    -6.8476  -1.7595   0.8893   1.7225   4.7295   7.0832   8.3005   9.0784
    12.7139  13.7691  14.0000  16.0667  16.6037  18.3173  19.1112  20.5448
    22.7566  23.7590  24.9470  26.4615  26.9693  29.2217  30.0980  30.4264

          k = 0.6000-0.2000 0.6000 (  1596 PWs)   bands (ev):

    -5.9958  -3.1425  -0.0061   2.0526   4.9735   7.7251   8.3317  10.6586
    11.4745  12.0735  13.9125  17.3567  17.9416  18.7152  19.9588  22.8793
    23.5012  23.5099  24.8928  24.9906  27.8854  28.3771  29.1298  29.5617

          k = 0.4000 0.0000 0.4000 (  1610 PWs)   bands (ev):

    -7.3266  -0.9289   0.4378   3.0042   6.0677   7.5788   7.6574   8.4597
     9.4972  13.0515  14.0879  14.9406  17.0253  17.3574  20.7643  21.5064
    23.4295  23.5289  23.8810  25.5628  29.3310  30.0474  30.1061  31.4236

          k = 0.0000 0.8000 0.0000 (  1624 PWs)   bands (ev):

    -6.0374  -2.4511   0.9748   0.9748   3.3066   4.0338  12.1592  12.1592
    13.6112  14.8357  16.4024  16.4774  16.4774  18.6970  19.0374  19.6080
    19.6080  21.3798  25.2665  26.1290  26.1290  26.5260  28.1523  30.8517

          k = 0.8000 0.0000 0.8000 (  1622 PWs)   bands (ev):

    -5.1875  -3.2751  -0.8073   1.1091   3.7364   6.2314  11.6111  11.8256
    11.9748  12.8799  16.9520  18.4866  18.5678  18.7659  19.3632  19.5934
    22.4519  23.2129  24.1542  24.3874  24.6699  26.1451  27.3382  28.6856

          k = 0.6000-0.2000 1.0000 (  1616 PWs)   bands (ev):

    -5.6417  -2.7081  -0.6963   0.4374   6.3598   6.9582   7.6869  11.0565
    12.0831  13.6746  16.7251  16.9534  17.2054  19.2879  19.6357  21.7446
    23.3769  23.6146  23.8067  23.9552  26.0764  26.7505  28.5922  30.5376

     the Fermi energy is    12.8991 ev

!    total energy              =     -13.55427766 Ry
     Harris-Foulkes estimate   =     -13.55427766 Ry
     estimated scf accuracy    <          2.6E-11 Ry

     The total energy is the sum of the following terms:

     one-electron contribution =      19.37120357 Ry
     hartree contribution      =       2.59089662 Ry
     xc contribution           =     -14.07651598 Ry
     ewald contribution        =     -21.44312514 Ry
     smearing contrib. (-TS)   =       0.00326328 Ry

     convergence has been achieved in  11 iterations

     Forces acting on atoms (Ry/au):

     atom    1 type  2   force =     0.00000000    0.00000000   -0.00000000
     atom    2 type  1   force =     0.00000000    0.00000000   -0.00000000

     Total force =     0.000000     Total SCF correction =     0.000000


     entering subroutine stress ...

          total   stress  (Ry/bohr**3)                   (kbar)     P= 5075.87
   0.03450508  -0.00000000  -0.00000000       5075.87     -0.00     -0.00
  -0.00000000   0.03450508  -0.00000000         -0.00   5075.87     -0.00
   0.00000000  -0.00000000   0.03450508          0.00     -0.00   5075.87


     Writing output data file Si.save

     init_run     :      1.42s CPU      1.52s WALL (       1 calls)
     electrons    :     30.98s CPU     32.40s WALL (       1 calls)
     forces       :      0.15s CPU      0.16s WALL (       1 calls)
     stress       :      0.82s CPU      0.91s WALL (       1 calls)

     Called by init_run:
     wfcinit      :      1.12s CPU      1.16s WALL (       1 calls)
     potinit      :      0.06s CPU      0.06s WALL (       1 calls)

     Called by electrons:
     c_bands      :     25.84s CPU     26.94s WALL (      11 calls)
     sum_band     :      4.46s CPU      4.72s WALL (      11 calls)
     v_of_rho     :      0.66s CPU      0.71s WALL (      12 calls)
     mix_rho      :      0.04s CPU      0.06s WALL (      11 calls)

     Called by c_bands:
     init_us_2    :      0.46s CPU      0.50s WALL (     250 calls)
     cegterg      :     25.46s CPU     26.54s WALL (     110 calls)

     Called by *egterg:
     h_psi        :     21.40s CPU     22.22s WALL (     346 calls)
     g_psi        :      0.04s CPU      0.04s WALL (     226 calls)
     cdiaghg      :      0.73s CPU      0.78s WALL (     336 calls)

     Called by h_psi:
     add_vuspsi   :      0.61s CPU      0.62s WALL (     346 calls)

     General routines
     calbec       :      0.73s CPU      0.77s WALL (     366 calls)
     fft          :      0.26s CPU      0.30s WALL (     139 calls)
     fftw         :     22.79s CPU     23.75s WALL (   15770 calls)
     davcio       :      0.00s CPU      0.00s WALL (      10 calls)

     Parallel routines
     fft_scatter  :      0.63s CPU      0.64s WALL (   15909 calls)

     PWSCF        :    33.52s CPU        35.22s WALL


   This run was terminated on:   4: 2:14  15Feb2023            

=------------------------------------------------------------------------------=
   JOB DONE.
=------------------------------------------------------------------------------=
