
     Program PWSCF v.5.1 starts on 13Feb2023 at 21:11:45 

     This program is part of the open-source Quantum ESPRESSO suite
     for quantum simulation of materials; please cite
         "P. Giannozzi et al., J. Phys.:Condens. Matter 21 395502 (2009);
          URL http://www.quantum-espresso.org", 
     in publications or presentations arising from this work. More details at
     http://www.quantum-espresso.org/quote

     Parallel version (MPI), running on     1 processors
     Waiting for input...
     Reading input from standard input

     Current dimensions of program PWSCF are:
     Max number of different atomic species (ntypx) = 10
     Max number of k-points (npk) =  40000
     Max angular momentum in pseudopotentials (lmaxx) =  3

     Atomic positions and unit cell read from directory:
     ./out/Si.save/

               file Si.pbe-mt_fhi.UPF: wavefunction(s)  4f renormalized

     Subspace diagonalization in iterative solution of the eigenvalue problem:
     a serial algorithm will be used


     G-vector sticks info
     --------------------
     sticks:   dense  smooth     PW     G-vecs:    dense   smooth      PW
     Sum         733     733    211                12939    12939    2109



     bravais-lattice index     =            2
     lattice parameter (alat)  =      10.2623  a.u.
     unit-cell volume          =     270.1967 (a.u.)^3
     number of atoms/cell      =            2
     number of atomic types    =            1
     number of electrons       =        28.00
     number of Kohn-Sham states=           14
     kinetic-energy cutoff     =      50.0000  Ry
     charge density cutoff     =     200.0000  Ry
     Exchange-correlation      = PBE ( 1  4  3  4 0)

     celldm(1)=  10.262347  celldm(2)=   0.000000  celldm(3)=   0.000000
     celldm(4)=   0.000000  celldm(5)=   0.000000  celldm(6)=   0.000000

     crystal axes: (cart. coord. in units of alat)
               a(1) = (  -0.500000   0.000000   0.500000 )  
               a(2) = (   0.000000   0.500000   0.500000 )  
               a(3) = (  -0.500000   0.500000   0.000000 )  

     reciprocal axes: (cart. coord. in units 2 pi/alat)
               b(1) = ( -1.000000 -1.000000  1.000000 )  
               b(2) = (  1.000000  1.000000  1.000000 )  
               b(3) = ( -1.000000  1.000000 -1.000000 )  


     PseudoPot. # 1 for Si read from file:
     /home/acedemo/psudo/Si.pbe-mt_fhi.UPF
     MD5 check sum: 259057c2adf9952f9ced37ae3d9e311d
     Pseudo is Norm-conserving, Zval =  4.0
     Generated using FHI98PP, converted with fhi2upf.x v.5.0.2
     Using radial grid of  495 points,  3 beta functions with: 
                l(1) =   0
                l(2) =   1
                l(3) =   3

     atomic species   valence    mass     pseudopotential
        Si             4.00    28.08550     Si( 1.00)

     48 Sym. Ops., with inversion, found (24 have fractional translation)



   Cartesian axes

     site n.     atom                  positions (alat units)
         1           Si  tau(   1) = (   0.0000000   0.0000000   0.0000000  )
         2           Si  tau(   2) = (   0.2500000   0.2500000   0.2500000  )

     number of k points=    51  Marzari-Vanderbilt smearing, width (Ry)=  0.0500
                       cart. coord. in units 2pi/alat
        k(    1) = (   0.5000000   0.5000000   0.5000000), wk =   0.0000000
        k(    2) = (   0.4500000   0.4500000   0.4500000), wk =   0.0014779
        k(    3) = (   0.4000000   0.4000000   0.4000000), wk =   0.0029558
        k(    4) = (   0.3500000   0.3500000   0.3500000), wk =   0.0044337
        k(    5) = (   0.3000000   0.3000000   0.3000000), wk =   0.0059116
        k(    6) = (   0.2500000   0.2500000   0.2500000), wk =   0.0073895
        k(    7) = (   0.2000000   0.2000000   0.2000000), wk =   0.0088674
        k(    8) = (   0.1500000   0.1500000   0.1500000), wk =   0.0103453
        k(    9) = (   0.1000000   0.1000000   0.1000000), wk =   0.0118232
        k(   10) = (   0.0500000   0.0500000   0.0500000), wk =   0.0133011
        k(   11) = (   0.0000000   0.0000000   0.0000000), wk =   0.0147790
        k(   12) = (   0.0000000   0.1000000   0.0000000), wk =   0.0168691
        k(   13) = (   0.0000000   0.2000000   0.0000000), wk =   0.0189591
        k(   14) = (   0.0000000   0.3000000   0.0000000), wk =   0.0210492
        k(   15) = (   0.0000000   0.4000000   0.0000000), wk =   0.0231392
        k(   16) = (   0.0000000   0.5000000   0.0000000), wk =   0.0252293
        k(   17) = (   0.0000000   0.6000000   0.0000000), wk =   0.0273194
        k(   18) = (   0.0000000   0.7000000   0.0000000), wk =   0.0294094
        k(   19) = (   0.0000000   0.8000000   0.0000000), wk =   0.0314995
        k(   20) = (   0.0000000   0.9000000   0.0000000), wk =   0.0335896
        k(   21) = (   0.0000000   1.0000000   0.0000000), wk =   0.0356796
        k(   22) = (   0.0000000   0.9750000   0.0750000), wk =   0.0370621
        k(   23) = (   0.0000000   0.9500000   0.1500000), wk =   0.0384445
        k(   24) = (  -0.0000000   0.9250000   0.2250000), wk =   0.0398270
        k(   25) = (  -0.0000000   0.9000000   0.3000000), wk =   0.0412094
        k(   26) = (   0.0000000   0.8750000   0.3750000), wk =   0.0425919
        k(   27) = (   0.0000000   0.8500000   0.4500000), wk =   0.0439743
        k(   28) = (   0.0000000   0.8250000   0.5250000), wk =   0.0453568
        k(   29) = (  -0.0000000   0.8000000   0.6000000), wk =   0.0467392
        k(   30) = (  -0.0000000   0.7750000   0.6750000), wk =   0.0481217
        k(   31) = (   0.0000000   0.7500000   0.7500000), wk =   0.0495041
        k(   32) = (   0.0000000   0.7250000   0.7750000), wk =   0.0500266
        k(   33) = (   0.0000000   0.7000000   0.8000000), wk =   0.0505491
        k(   34) = (   0.0000000   0.6750000   0.8250000), wk =   0.0510717
        k(   35) = (   0.0000000   0.6500000   0.8500000), wk =   0.0515942
        k(   36) = (   0.0000000   0.6250000   0.8750000), wk =   0.0521167
        k(   37) = (   0.0000000   0.6000000   0.9000000), wk =   0.0526392
        k(   38) = (   0.0000000   0.5750000   0.9250000), wk =   0.0531617
        k(   39) = (   0.0000000   0.5500000   0.9500000), wk =   0.0536842
        k(   40) = (   0.0000000   0.5250000   0.9750000), wk =   0.0542067
        k(   41) = (   0.0000000   0.5000000   1.0000000), wk =   0.0547293
        k(   42) = (   0.0000000   0.4500000   0.9000000), wk =   0.0574942
        k(   43) = (  -0.0000000   0.4000000   0.8000000), wk =   0.0602591
        k(   44) = (  -0.0000000   0.3500000   0.7000000), wk =   0.0630239
        k(   45) = (  -0.0000000   0.3000000   0.6000000), wk =   0.0657888
        k(   46) = (   0.0000000   0.2500000   0.5000000), wk =   0.0685537
        k(   47) = (   0.0000000   0.2000000   0.4000000), wk =   0.0713186
        k(   48) = (   0.0000000   0.1500000   0.3000000), wk =   0.0740835
        k(   49) = (  -0.0000000   0.1000000   0.2000000), wk =   0.0768484
        k(   50) = (  -0.0000000   0.0500000   0.1000000), wk =   0.0796133
        k(   51) = (   0.0000000   0.0000000   0.0000000), wk =   0.0823782

     Dense  grid:    12939 G-vectors     FFT dimensions: (  36,  36,  36)

     Largest allocated arrays     est. size (Mb)     dimensions
        Kohn-Sham Wavefunctions         0.35 Mb     (    1639,   14)
        NL pseudopotentials             0.55 Mb     (    1639,   22)
        Each V/rho on FFT grid          0.71 Mb     (   46656)
        Each G-vector array             0.10 Mb     (   12939)
        G-vector shells                 0.00 Mb     (     180)
     Largest temporary arrays     est. size (Mb)     dimensions
        Auxiliary wavefunctions         1.40 Mb     (    1639,   56)
        Each subspace H/S matrix        0.05 Mb     (      56,   56)
        Each <psi_i|beta_j> matrix      0.00 Mb     (      22,   14)

     The potential is recalculated from file :
     ./out/Si.save/charge-density.dat

     Starting wfc are   32 randomized atomic wfcs

     Band Structure Calculation
     Davidson diagonalization with overlap

     ethr =  5.71E-12,  avg # of iterations = 17.6

     total cpu time spent up to now is       41.0 secs

     End of band structure calculation

          k = 0.5000 0.5000 0.5000 (  1622 PWs)   bands (ev):

    -6.4518  -4.9998   2.1957   2.1957   4.1154   4.9326   4.9326   6.8462
    12.9370  12.9370  13.1828  13.5214  13.5214  15.7649

          k = 0.4500 0.4500 0.4500 (  1610 PWs)   bands (ev):

    -6.7170  -4.6658   2.2090   2.2090   4.1266   4.9791   4.9791   6.9027
    12.0890  12.0890  12.8435  14.4428  14.4428  16.0829

          k = 0.4000 0.4000 0.4000 (  1616 PWs)   bands (ev):

    -7.2079  -3.9690   2.2507   2.2507   4.1622   5.1140   5.1140   7.0688
    11.0862  11.0862  12.1241  15.6638  15.6638  16.5402

          k = 0.3500 0.3500 0.3500 (  1610 PWs)   bands (ev):

    -7.7037  -3.1313   2.3244   2.3244   4.2272   5.3225   5.3225   7.3344
    10.1680  10.1680  11.3127  15.9753  16.9169  16.9169

          k = 0.3000 0.3000 0.3000 (  1615 PWs)   bands (ev):

    -8.1530  -2.2060   2.4351   2.4351   4.3272   5.5732   5.5732   7.6817
     9.3712   9.3712  10.5085  14.6257  17.2536  17.2536

          k = 0.2500 0.2500 0.2500 (  1618 PWs)   bands (ev):

    -8.5412  -1.2116   2.5867   2.5867   4.4654   5.7993   5.7993   8.0721
     8.7602   8.7602   9.7614  13.1718  16.0645  16.0645

          k = 0.2000 0.2000 0.2000 (  1606 PWs)   bands (ev):

    -8.8624  -0.1602   2.7809   2.7809   4.6399   5.8754   5.8754   8.3503
     8.4574   8.4574   9.1880  11.7985  14.8503  14.8503

          k = 0.1500 0.1500 0.1500 (  1600 PWs)   bands (ev):

    -9.1140   0.9330   3.0151   3.0151   4.8370   5.7021   5.7021   8.0661
     8.5597   8.5597   9.0251  10.7724  13.7065  13.7065

          k = 0.1000 0.1000 0.1000 (  1606 PWs)   bands (ev):

    -9.2944   2.0385   3.2765   3.2765   5.0116   5.3654   5.3654   7.5033
     8.4871   8.9799   8.9799  10.6572  12.6579  12.6579

          k = 0.0500 0.0500 0.0500 (  1630 PWs)   bands (ev):

    -9.4030   3.0715   3.5243   3.5243   5.0310   5.0310   5.0326   6.9789
     7.7959   9.5428   9.5428  11.0532  11.7586  11.7586

          k = 0.0000 0.0000 0.0000 (  1639 PWs)   bands (ev):

    -9.4392   3.6434   3.6434   3.6434   4.8775   4.8775   4.8775   6.7582
     7.5224   9.9030   9.9030  11.2917  11.2917  11.2917

          k = 0.0000 0.1000 0.0000 (  1627 PWs)   bands (ev):

    -9.3909   3.2551   3.2551   3.3696   4.6205   5.3249   5.3249   7.0096
     7.8664   9.0687   9.9526  11.3723  11.3723  11.8387

          k = 0.0000 0.2000 0.0000 (  1599 PWs)   bands (ev):

    -9.2461   2.6154   2.6154   2.7381   4.0769   6.1378   6.1378   7.0161
     8.4443   8.6699  10.1012  11.6178  11.6178  12.3291

          k = 0.0000 0.3000 0.0000 (  1607 PWs)   bands (ev):

    -9.0052   1.9619   1.9944   1.9944   3.4863   5.9132   7.0346   7.0346
     9.1916   9.6897  10.3488  12.0387  12.0387  12.7065

          k = 0.0000 0.4000 0.0000 (  1607 PWs)   bands (ev):

    -8.6689   1.1094   1.4372   1.4372   2.9363   4.7383   7.9540   7.9540
    10.2713  10.6953  10.8300  12.6487  12.6487  13.1325

          k = 0.0000 0.5000 0.0000 (  1612 PWs)   bands (ev):

    -8.2382   0.1891   0.9571   0.9571   2.4585   3.7286   8.8687   8.8687
    11.1405  11.4299  12.0434  13.4563  13.4563  13.6805

          k = 0.0000 0.6000 0.0000 (  1620 PWs)   bands (ev):

    -7.7145  -0.7927   0.5599   0.5599   2.0669   2.9277   9.7689   9.7689
    11.6842  12.5547  13.2817  14.4309  14.4472  14.4472

          k = 0.0000 0.7000 0.0000 (  1632 PWs)   bands (ev):

    -7.0998  -1.8103   0.2487   0.2487   1.7695   2.3294  10.6611  10.6611
    12.3260  13.5311  14.4574  15.4769  15.4923  15.4923

          k = 0.0000 0.8000 0.0000 (  1624 PWs)   bands (ev):

    -6.3972  -2.8279   0.0254   0.0254   1.5719   1.9077  11.5616  11.5616
    13.0654  14.3398  15.3808  15.4537  15.4537  16.8101

          k = 0.0000 0.9000 0.0000 (  1608 PWs)   bands (ev):

    -5.6107  -3.8140  -0.1090  -0.1090   1.4795   1.6370  12.4851  12.4851
    13.9020  14.4866  14.4866  15.0274  15.7644  15.8630

          k = 0.0000 1.0000 0.0000 (  1604 PWs)   bands (ev):

    -4.7465  -4.7465  -0.1538  -0.1538   1.4984   1.4984  13.3096  13.3096
    13.6238  13.6238  14.8349  14.8349  15.5620  15.5620

          k = 0.0000 0.9750 0.0750 (  1618 PWs)   bands (ev):

    -4.9492  -4.5012  -0.3746  -0.3663   1.7628   1.7950  12.5717  12.9993
    13.2878  13.7363  14.8751  15.3197  15.8181  16.0832

          k = 0.0000 0.9500 0.1500 (  1622 PWs)   bands (ev):

    -5.1049  -4.2229  -0.8202  -0.7759   2.3751   2.4246  11.2826  12.2052
    13.0104  13.9982  14.8470  15.5820  16.5545  17.2127

          k =-0.0000 0.9250 0.2250 (  1622 PWs)   bands (ev):

    -5.2119  -3.9326  -1.2923  -1.1712   3.1341   3.1934   9.9464  11.3154
    12.7922  14.2138  14.8307  15.7383  16.8274  17.7211

          k =-0.0000 0.9000 0.3000 (  1623 PWs)   bands (ev):

    -5.2708  -3.6754  -1.7302  -1.4522   3.9762   4.0365   8.6372  10.4397
    12.5708  14.1766  15.0194  15.7880  16.2064  18.0768

          k = 0.0000 0.8750 0.3750 (  1614 PWs)   bands (ev):

    -5.2834  -3.5288  -2.1124  -1.5255   4.8749   4.8977   7.4136   9.6066
    12.3200  13.8241  15.3895  15.7205  15.7656  18.0679

          k = 0.0000 0.8500 0.4500 (  1612 PWs)   bands (ev):

    -5.2536  -3.5453  -2.4272  -1.3347   5.4005   5.8025   6.6561   8.8429
    12.0192  13.2521  15.5894  15.6124  15.8519  18.2083

          k = 0.0000 0.8250 0.5250 (  1611 PWs)   bands (ev):

    -5.1878  -3.6768  -2.6647  -0.9313   4.6323   6.6602   7.2836   8.2439
    11.6615  12.5896  15.5610  15.6091  16.3549  18.4033

          k =-0.0000 0.8000 0.6000 (  1614 PWs)   bands (ev):

    -5.0947  -3.8460  -2.8142  -0.4086   3.5851   6.8935   8.3191   8.3574
    11.2588  11.9204  15.6176  15.7379  16.9003  18.5675

          k =-0.0000 0.7750 0.6750 (  1621 PWs)   bands (ev):

    -4.9851  -4.0081  -2.8641   0.1284   2.6341   6.4311   9.2360   9.4393
    10.8430  11.2871  15.7951  15.9394  17.4735  18.6345

          k = 0.0000 0.7500 0.7500 (  1624 PWs)   bands (ev):

    -4.8686  -4.1441  -2.8046   0.3792   2.0954   5.8820  10.0780  10.4332
    10.6165  10.8741  16.0876  16.1763  17.8919  18.2928

          k = 0.0000 0.7250 0.7750 (  1616 PWs)   bands (ev):

    -4.8626  -4.1415  -2.7988   0.2730   2.2150   5.8859   9.8826  10.1606
    10.8125  11.1544  16.0977  16.1723  17.6499  18.4023

          k = 0.0000 0.7000 0.8000 (  1621 PWs)   bands (ev):

    -4.8446  -4.1343  -2.7814   0.0153   2.5133   5.8974   9.5465   9.7531
    11.1504  11.5847  16.1269  16.1555  17.3070  18.2492

          k = 0.0000 0.6750 0.8250 (  1620 PWs)   bands (ev):

    -4.8146  -4.1232  -2.7524  -0.3081   2.9048   5.9159   9.1917   9.3403
    11.5076  12.0334  16.1079  16.1709  17.0029  18.0479

          k = 0.0000 0.6500 0.8500 (  1616 PWs)   bands (ev):

    -4.7727  -4.1100  -2.7118  -0.6509   3.3443   5.9402   8.8384   8.9351
    11.8635  12.4842  15.9944  16.2205  16.7882  17.8369

          k = 0.0000 0.6250 0.8750 (  1616 PWs)   bands (ev):

    -4.7188  -4.0974  -2.6597  -0.9912   3.8111   5.9685   8.4940   8.5421
    12.2106  12.9251  15.7994  16.2568  16.6894  17.6490

          k = 0.0000 0.6000 0.9000 (  1613 PWs)   bands (ev):

    -4.6529  -4.0899  -2.5960  -1.3156   4.2936   5.9974   8.1646   8.1651
    12.5439  13.3364  15.5693  16.2496  16.6784  17.5167

          k = 0.0000 0.5750 0.9250 (  1615 PWs)   bands (ev):

    -4.5751  -4.0939  -2.5210  -1.6133   4.7814   6.0209   7.8107   7.8575
    12.8596  13.6758  15.3779  16.1707  16.7206  17.4542

          k = 0.0000 0.5500 0.9500 (  1615 PWs)   bands (ev):

    -4.4855  -4.1183  -2.4347  -1.8726   5.2575   6.0288   7.4934   7.5842
    13.1540  13.8630  15.3140  16.0218  16.8037  17.4179

          k = 0.0000 0.5250 0.9750 (  1615 PWs)   bands (ev):

    -4.3839  -4.1739  -2.3371  -2.0812   5.6786   6.0045   7.2551   7.3620
    13.4234  13.8385  15.4253  15.8301  16.9330  17.3192

          k = 0.0000 0.5000 1.0000 (  1628 PWs)   bands (ev):

    -4.2706  -4.2706  -2.2284  -2.2284   5.9278   5.9278   7.2117   7.2117
    13.6622  13.6622  15.6256  15.6256  17.1253  17.1253

          k = 0.0000 0.4500 0.9000 (  1616 PWs)   bands (ev):

    -4.9202  -3.7626  -2.4044  -1.6917   5.5243   5.7397   6.8533   8.3742
    12.5920  13.8257  15.3684  15.8964  16.0919  17.9676

          k =-0.0000 0.4000 0.8000 (  1616 PWs)   bands (ev):

    -5.7441  -3.1888  -2.1843  -1.0062   5.1906   5.2727   6.6462   9.9721
    11.5042  12.7926  15.0755  15.1652  16.2182  18.4255

          k =-0.0000 0.3500 0.7000 (  1618 PWs)   bands (ev):

    -6.5609  -2.5411  -1.7454  -0.1983   4.8729   4.9575   6.5697  10.2566
    11.6499  11.7874  14.1736  14.3783  16.9369  17.3260

          k =-0.0000 0.3000 0.6000 (  1609 PWs)   bands (ev):

    -7.3029  -1.8111  -1.1551   0.6883   4.5770   4.8693   6.5900   9.2767
    10.5938  12.5006  13.3864  14.6404  15.1791  16.5892

          k = 0.0000 0.2500 0.5000 (  1610 PWs)   bands (ev):

    -7.9459  -0.9936  -0.4406   1.5781   4.3934   4.9954   6.6482   8.3294
     9.7051  11.9309  12.7144  13.4099  14.9045  16.3921

          k = 0.0000 0.2000 0.4000 (  1613 PWs)   bands (ev):

    -8.4792  -0.0877   0.3798   2.3525   4.3248   5.4377   6.6277   7.4511
     9.0928  11.0969  11.7130  12.1905  13.4392  16.0000

          k = 0.0000 0.1500 0.3000 (  1607 PWs)   bands (ev):

    -8.8976   0.9005   1.2850   2.9173   4.3708   6.2078   6.4267   6.6474
     8.8290  10.0803  10.2592  11.7615  12.3650  14.6051

          k =-0.0000 0.1000 0.2000 (  1600 PWs)   bands (ev):

    -9.1980   1.9512   2.2365   3.2986   4.5243   5.9048   5.9167   7.2368
     8.5104   8.9430   9.5699  11.4709  11.7231  13.3191

          k =-0.0000 0.0500 0.1000 (  1623 PWs)   bands (ev):

    -9.3788   2.9973   3.1407   3.5481   4.7460   5.2619   5.3306   7.0931
     7.9535   9.0542   9.7483  11.3218  11.3937  12.1179

          k = 0.0000 0.0000 0.0000 (  1639 PWs)   bands (ev):

    -9.4392   3.6434   3.6434   3.6434   4.8775   4.8775   4.8775   6.7582
     7.5224   9.9030   9.9030  11.2917  11.2917  11.2917

     Writing output data file Si.save

     init_run     :      0.15s CPU      0.17s WALL (       1 calls)
     electrons    :     36.78s CPU     39.25s WALL (       1 calls)

     Called by init_run:
     wfcinit      :      0.00s CPU      0.00s WALL (       1 calls)
     potinit      :      0.04s CPU      0.05s WALL (       1 calls)

     Called by electrons:
     c_bands      :     36.77s CPU     39.25s WALL (       1 calls)
     v_of_rho     :      0.04s CPU      0.05s WALL (       1 calls)

     Called by c_bands:
     init_us_2    :      0.09s CPU      0.10s WALL (      51 calls)
     cegterg      :     31.08s CPU     33.07s WALL (      63 calls)

     Called by *egterg:
     h_psi        :     29.22s CPU     31.20s WALL (    1010 calls)
     g_psi        :      0.08s CPU      0.08s WALL (     896 calls)
     cdiaghg      :      0.93s CPU      1.02s WALL (     947 calls)

     Called by h_psi:
     add_vuspsi   :      0.83s CPU      0.89s WALL (    1010 calls)

     General routines
     calbec       :      0.94s CPU      1.03s WALL (    1010 calls)
     fft          :      0.02s CPU      0.02s WALL (      10 calls)
     fftw         :     25.90s CPU     27.64s WALL (   20532 calls)
     davcio       :      0.00s CPU      0.01s WALL (      51 calls)

     Parallel routines
     fft_scatter  :      0.66s CPU      0.69s WALL (   20542 calls)

     PWSCF        :    38.41s CPU        41.16s WALL


   This run was terminated on:  21:12:26  13Feb2023            

=------------------------------------------------------------------------------=
   JOB DONE.
=------------------------------------------------------------------------------=
