
     Program PWSCF v.5.1 starts on 13Feb2023 at 21:10:48 

     This program is part of the open-source Quantum ESPRESSO suite
     for quantum simulation of materials; please cite
         "P. Giannozzi et al., J. Phys.:Condens. Matter 21 395502 (2009);
          URL http://www.quantum-espresso.org", 
     in publications or presentations arising from this work. More details at
     http://www.quantum-espresso.org/quote

     Parallel version (MPI), running on     1 processors
     Waiting for input...
     Reading input from standard input

     Current dimensions of program PWSCF are:
     Max number of different atomic species (ntypx) = 10
     Max number of k-points (npk) =  40000
     Max angular momentum in pseudopotentials (lmaxx) =  3

     Atomic positions and unit cell read from directory:
     ./out/Si.save/

               file Si.pbe-mt_fhi.UPF: wavefunction(s)  4f renormalized

     Subspace diagonalization in iterative solution of the eigenvalue problem:
     a serial algorithm will be used


     G-vector sticks info
     --------------------
     sticks:   dense  smooth     PW     G-vecs:    dense   smooth      PW
     Sum         733     733    223                12939    12939    2229



     bravais-lattice index     =            2
     lattice parameter (alat)  =      10.2623  a.u.
     unit-cell volume          =     270.1967 (a.u.)^3
     number of atoms/cell      =            2
     number of atomic types    =            1
     number of electrons       =        28.00
     number of Kohn-Sham states=           14
     kinetic-energy cutoff     =      50.0000  Ry
     charge density cutoff     =     200.0000  Ry
     Exchange-correlation      = PBE ( 1  4  3  4 0)

     celldm(1)=  10.262347  celldm(2)=   0.000000  celldm(3)=   0.000000
     celldm(4)=   0.000000  celldm(5)=   0.000000  celldm(6)=   0.000000

     crystal axes: (cart. coord. in units of alat)
               a(1) = (  -0.500000   0.000000   0.500000 )  
               a(2) = (   0.000000   0.500000   0.500000 )  
               a(3) = (  -0.500000   0.500000   0.000000 )  

     reciprocal axes: (cart. coord. in units 2 pi/alat)
               b(1) = ( -1.000000 -1.000000  1.000000 )  
               b(2) = (  1.000000  1.000000  1.000000 )  
               b(3) = ( -1.000000  1.000000 -1.000000 )  


     PseudoPot. # 1 for Si read from file:
     /home/acedemo/psudo/Si.pbe-mt_fhi.UPF
     MD5 check sum: 259057c2adf9952f9ced37ae3d9e311d
     Pseudo is Norm-conserving, Zval =  4.0
     Generated using FHI98PP, converted with fhi2upf.x v.5.0.2
     Using radial grid of  495 points,  3 beta functions with: 
                l(1) =   0
                l(2) =   1
                l(3) =   3

     atomic species   valence    mass     pseudopotential
        Si             4.00    28.08550     Si( 1.00)

     48 Sym. Ops., with inversion, found (24 have fractional translation)



   Cartesian axes

     site n.     atom                  positions (alat units)
         1           Si  tau(   1) = (   0.0000000   0.0000000   0.0000000  )
         2           Si  tau(   2) = (   0.2500000   0.2500000   0.2500000  )

     number of k points=    72 (tetrahedron method)
                       cart. coord. in units 2pi/alat
        k(    1) = (   0.0000000   0.0000000   0.0000000), wk =   0.0011574
        k(    2) = (  -0.0833333   0.0833333  -0.0833333), wk =   0.0092593
        k(    3) = (  -0.1666667   0.1666667  -0.1666667), wk =   0.0092593
        k(    4) = (  -0.2500000   0.2500000  -0.2500000), wk =   0.0092593
        k(    5) = (  -0.3333333   0.3333333  -0.3333333), wk =   0.0092593
        k(    6) = (  -0.4166667   0.4166667  -0.4166667), wk =   0.0092593
        k(    7) = (   0.5000000  -0.5000000   0.5000000), wk =   0.0046296
        k(    8) = (   0.0000000   0.1666667   0.0000000), wk =   0.0069444
        k(    9) = (  -0.0833333   0.2500000  -0.0833333), wk =   0.0277778
        k(   10) = (  -0.1666667   0.3333333  -0.1666667), wk =   0.0277778
        k(   11) = (  -0.2500000   0.4166667  -0.2500000), wk =   0.0277778
        k(   12) = (  -0.3333333   0.5000000  -0.3333333), wk =   0.0277778
        k(   13) = (   0.5833333  -0.4166667   0.5833333), wk =   0.0277778
        k(   14) = (   0.5000000  -0.3333333   0.5000000), wk =   0.0277778
        k(   15) = (   0.4166667  -0.2500000   0.4166667), wk =   0.0277778
        k(   16) = (   0.3333333  -0.1666667   0.3333333), wk =   0.0277778
        k(   17) = (   0.2500000  -0.0833333   0.2500000), wk =   0.0277778
        k(   18) = (   0.1666667  -0.0000000   0.1666667), wk =   0.0138889
        k(   19) = (   0.0000000   0.3333333   0.0000000), wk =   0.0069444
        k(   20) = (  -0.0833333   0.4166667  -0.0833333), wk =   0.0277778
        k(   21) = (  -0.1666667   0.5000000  -0.1666667), wk =   0.0277778
        k(   22) = (  -0.2500000   0.5833333  -0.2500000), wk =   0.0277778
        k(   23) = (   0.6666667  -0.3333333   0.6666667), wk =   0.0277778
        k(   24) = (   0.5833333  -0.2500000   0.5833333), wk =   0.0277778
        k(   25) = (   0.5000000  -0.1666667   0.5000000), wk =   0.0277778
        k(   26) = (   0.4166667  -0.0833333   0.4166667), wk =   0.0277778
        k(   27) = (   0.3333333   0.0000000   0.3333333), wk =   0.0138889
        k(   28) = (   0.0000000   0.5000000   0.0000000), wk =   0.0069444
        k(   29) = (  -0.0833333   0.5833333  -0.0833333), wk =   0.0277778
        k(   30) = (  -0.1666667   0.6666667  -0.1666667), wk =   0.0277778
        k(   31) = (   0.7500000  -0.2500000   0.7500000), wk =   0.0277778
        k(   32) = (   0.6666667  -0.1666667   0.6666667), wk =   0.0277778
        k(   33) = (   0.5833333  -0.0833333   0.5833333), wk =   0.0277778
        k(   34) = (   0.5000000   0.0000000   0.5000000), wk =   0.0138889
        k(   35) = (   0.0000000   0.6666667   0.0000000), wk =   0.0069444
        k(   36) = (  -0.0833333   0.7500000  -0.0833333), wk =   0.0277778
        k(   37) = (   0.8333333  -0.1666667   0.8333333), wk =   0.0277778
        k(   38) = (   0.7500000  -0.0833333   0.7500000), wk =   0.0277778
        k(   39) = (   0.6666667   0.0000000   0.6666667), wk =   0.0138889
        k(   40) = (   0.0000000   0.8333333   0.0000000), wk =   0.0069444
        k(   41) = (   0.9166667  -0.0833333   0.9166667), wk =   0.0277778
        k(   42) = (   0.8333333   0.0000000   0.8333333), wk =   0.0138889
        k(   43) = (   0.0000000  -1.0000000   0.0000000), wk =   0.0034722
        k(   44) = (  -0.1666667   0.3333333   0.0000000), wk =   0.0277778
        k(   45) = (  -0.2500000   0.4166667  -0.0833333), wk =   0.0555556
        k(   46) = (  -0.3333333   0.5000000  -0.1666667), wk =   0.0555556
        k(   47) = (   0.5833333  -0.4166667   0.7500000), wk =   0.0555556
        k(   48) = (   0.5000000  -0.3333333   0.6666667), wk =   0.0277778
        k(   49) = (  -0.1666667   0.5000000   0.0000000), wk =   0.0277778
        k(   50) = (  -0.2500000   0.5833333  -0.0833333), wk =   0.0555556
        k(   51) = (   0.6666667  -0.3333333   0.8333333), wk =   0.0555556
        k(   52) = (   0.5833333  -0.2500000   0.7500000), wk =   0.0555556
        k(   53) = (   0.5000000  -0.1666667   0.6666667), wk =   0.0555556
        k(   54) = (   0.4166667  -0.0833333   0.5833333), wk =   0.0555556
        k(   55) = (   0.3333333   0.0000000   0.5000000), wk =   0.0277778
        k(   56) = (  -0.1666667   0.6666667  -0.0000000), wk =   0.0277778
        k(   57) = (   0.7500000  -0.2500000   0.9166667), wk =   0.0555556
        k(   58) = (   0.6666667  -0.1666667   0.8333333), wk =   0.0555556
        k(   59) = (   0.5833333  -0.0833333   0.7500000), wk =   0.0555556
        k(   60) = (   0.5000000   0.0000000   0.6666667), wk =   0.0277778
        k(   61) = (   0.8333333  -0.1666667   1.0000000), wk =   0.0277778
        k(   62) = (   0.7500000  -0.0833333   0.9166667), wk =   0.0555556
        k(   63) = (   0.6666667   0.0000000   0.8333333), wk =   0.0277778
        k(   64) = (  -0.1666667  -1.0000000   0.0000000), wk =   0.0138889
        k(   65) = (   0.6666667  -0.3333333   1.0000000), wk =   0.0277778
        k(   66) = (   0.5833333  -0.2500000   0.9166667), wk =   0.0555556
        k(   67) = (   0.5000000  -0.1666667   0.8333333), wk =   0.0277778
        k(   68) = (   0.6666667  -0.1666667   1.0000000), wk =   0.0277778
        k(   69) = (   0.5833333  -0.0833333   0.9166667), wk =   0.0555556
        k(   70) = (   0.5000000   0.0000000   0.8333333), wk =   0.0277778
        k(   71) = (  -0.3333333  -1.0000000   0.0000000), wk =   0.0138889
        k(   72) = (  -0.5000000  -1.0000000   0.0000000), wk =   0.0069444

     Dense  grid:    12939 G-vectors     FFT dimensions: (  36,  36,  36)

     Largest allocated arrays     est. size (Mb)     dimensions
        Kohn-Sham Wavefunctions         0.35 Mb     (    1639,   14)
        NL pseudopotentials             0.55 Mb     (    1639,   22)
        Each V/rho on FFT grid          0.71 Mb     (   46656)
        Each G-vector array             0.10 Mb     (   12939)
        G-vector shells                 0.00 Mb     (     180)
     Largest temporary arrays     est. size (Mb)     dimensions
        Auxiliary wavefunctions         1.40 Mb     (    1639,   56)
        Each subspace H/S matrix        0.05 Mb     (      56,   56)
        Each <psi_i|beta_j> matrix      0.00 Mb     (      22,   14)

     The potential is recalculated from file :
     ./out/Si.save/charge-density.dat

     Starting wfc are   32 randomized atomic wfcs

     Band Structure Calculation
     Davidson diagonalization with overlap

     ethr =  5.71E-12,  avg # of iterations = 19.2

     Warning: ef = 19.284279 is above the highest band at k-point   1
              e  =  11.291672

     Warning: ef = 19.284279 is above the highest band at k-point   2
              e  =  12.336300

     Warning: ef = 19.284279 is above the highest band at k-point   3
              e  =  14.078479

     Warning: ef = 19.284279 is above the highest band at k-point   4
              e  =  16.064508

     Warning: ef = 19.284279 is above the highest band at k-point   5
              e  =  17.285572

     Warning: ef = 19.284279 is above the highest band at k-point   6
              e  =  16.436580

     Warning: ef = 19.284279 is above the highest band at k-point   7
              e  =  15.764882

     Warning: ef = 19.284279 is above the highest band at k-point   8
              e  =  12.191027

     Warning: ef = 19.284279 is above the highest band at k-point   9
              e  =  13.616931

     Warning: ef = 19.284279 is above the highest band at k-point  10
              e  =  15.599274

     Warning: ef = 19.284279 is above the highest band at k-point  11
              e  =  17.551821

     Warning: ef = 19.284279 is above the highest band at k-point  12
              e  =  17.418678

     Warning: ef = 19.284279 is above the highest band at k-point  13
              e  =  16.722779

     Warning: ef = 19.284279 is above the highest band at k-point  14
              e  =  16.693476

     Warning: ef = 19.284279 is above the highest band at k-point  15
              e  =  17.690885

     Warning: ef = 19.284279 is above the highest band at k-point  16
              e  =  17.567964

     Warning: ef = 19.284279 is above the highest band at k-point  17
              e  =  15.780229

     Warning: ef = 19.284279 is above the highest band at k-point  18
              e  =  13.920478

     Warning: ef = 19.284279 is above the highest band at k-point  19
              e  =  12.838891

     Warning: ef = 19.284279 is above the highest band at k-point  20
              e  =  14.508191

     Warning: ef = 19.284279 is above the highest band at k-point  21
              e  =  16.762556

     Warning: ef = 19.284279 is above the highest band at k-point  22
              e  =  17.138743

     Warning: ef = 19.284279 is above the highest band at k-point  23
              e  =  18.617827

     Warning: ef = 19.284279 is above the highest band at k-point  24
              e  =  17.636181

     Warning: ef = 19.284279 is above the highest band at k-point  25
              e  =  18.150006

     Warning: ef = 19.284279 is above the highest band at k-point  26
              e  =  16.083075

     Warning: ef = 19.284279 is above the highest band at k-point  27
              e  =  17.452981

     Warning: ef = 19.284279 is above the highest band at k-point  28
              e  =  13.680516

     Warning: ef = 19.284279 is above the highest band at k-point  29
              e  =  15.803130

     Warning: ef = 19.284279 is above the highest band at k-point  30
              e  =  16.759849

     Warning: ef = 19.284279 is above the highest band at k-point  31
              e  =  18.268959

     Warning: ef = 19.284279 is above the highest band at k-point  32
              e  =  18.462817

     Warning: ef = 19.284279 is above the highest band at k-point  33
              e  =  18.638843

     Warning: ef = 19.284279 is above the highest band at k-point  34
              e  =  17.612949

     Warning: ef = 19.284279 is above the highest band at k-point  35
              e  =  15.164659

     Warning: ef = 19.284279 is above the highest band at k-point  36
              e  =  16.366337

     Warning: ef = 19.284279 is above the highest band at k-point  37
              e  =  17.591801

     Warning: ef = 19.284279 is above the highest band at k-point  38
              e  =  18.360548

     Warning: ef = 19.284279 is above the highest band at k-point  39
              e  =  18.826641

     Warning: ef = 19.284279 is above the highest band at k-point  40
              e  =  16.600662

     Warning: ef = 19.284279 is above the highest band at k-point  41
              e  =  16.584798

     Warning: ef = 19.284279 is above the highest band at k-point  42
              e  =  17.243367

     Warning: ef = 19.284279 is above the highest band at k-point  43
              e  =  15.561967

     Warning: ef = 19.284279 is above the highest band at k-point  44
              e  =  15.057735

     Warning: ef = 19.284279 is above the highest band at k-point  45
              e  =  17.049210

     Warning: ef = 19.284279 is above the highest band at k-point  46
              e  =  16.822406

     Warning: ef = 19.284279 is above the highest band at k-point  47
              e  =  17.727732

     Warning: ef = 19.284279 is above the highest band at k-point  48
              e  =  17.404094

     Warning: ef = 19.284279 is above the highest band at k-point  49
              e  =  16.023473

     Warning: ef = 19.284279 is above the highest band at k-point  50
              e  =  16.123317

     Warning: ef = 19.284279 is above the highest band at k-point  51
              e  =  16.831245

     Warning: ef = 19.284279 is above the highest band at k-point  52
              e  =  18.804180

     Warning: ef = 19.284279 is above the highest band at k-point  53
              e  =  17.860790

     Warning: ef = 19.284279 is above the highest band at k-point  54
              e  =  17.722362

     Warning: ef = 19.284279 is above the highest band at k-point  55
              e  =  15.774826

     Warning: ef = 19.284279 is above the highest band at k-point  56
              e  =  16.153760

     Warning: ef = 19.284279 is above the highest band at k-point  57
              e  =  16.254173

     Warning: ef = 19.284279 is above the highest band at k-point  58
              e  =  18.032752

     Warning: ef = 19.284279 is above the highest band at k-point  60
              e  =  18.618711

     Warning: ef = 19.284279 is above the highest band at k-point  61
              e  =  16.347228

     Warning: ef = 19.284279 is above the highest band at k-point  62
              e  =  17.741106

     Warning: ef = 19.284279 is above the highest band at k-point  63
              e  =  17.977014

     Warning: ef = 19.284279 is above the highest band at k-point  64
              e  =  17.126273

     Warning: ef = 19.284279 is above the highest band at k-point  65
              e  =  17.604572

     Warning: ef = 19.284279 is above the highest band at k-point  66
              e  =  18.188542

     Warning: ef = 19.284279 is above the highest band at k-point  67
              e  =  18.612508

     Warning: ef = 19.284279 is above the highest band at k-point  68
              e  =  18.127488

     Warning: ef = 19.284279 is above the highest band at k-point  69
              e  =  18.135829

     Warning: ef = 19.284279 is above the highest band at k-point  70
              e  =  18.338270

     Warning: ef = 19.284279 is above the highest band at k-point  71
              e  =  17.513043

     Warning: ef = 19.284279 is above the highest band at k-point  72
              e  =  17.125324

     total cpu time spent up to now is       44.1 secs

     End of band structure calculation

          k = 0.0000 0.0000 0.0000 (  1639 PWs)   bands (ev):

    -9.4392   3.6434   3.6434   3.6434   4.8775   4.8775   4.8775   6.7582
     7.5224   9.9030   9.9030  11.2917  11.2917  11.2917

          k =-0.0833 0.0833-0.0833 (  1612 PWs)   bands (ev):

    -9.3386   2.3987   3.3643   3.3643   5.0456   5.2457   5.2457   7.3144
     8.2322   9.1612   9.1612  10.7731  12.3363  12.3363

          k =-0.1667 0.1667-0.1667 (  1591 PWs)   bands (ev):

    -9.0380   0.5653   2.9330   2.9330   4.7705   5.7859   5.7859   8.2230
     8.4823   8.4823   9.0666  11.0403  14.0785  14.0785

          k =-0.2500 0.2500-0.2500 (  1618 PWs)   bands (ev):

    -8.5412  -1.2116   2.5867   2.5867   4.4654   5.7993   5.7993   8.0721
     8.7602   8.7602   9.7614  13.1718  16.0645  16.0645

          k =-0.3333 0.3333-0.3333 (  1616 PWs)   bands (ev):

    -7.8597  -2.8314   2.3570   2.3570   4.2564   5.4037   5.4037   7.4423
     9.8867   9.8867  11.0412  15.5591  17.2856  17.2856

          k =-0.4167 0.4167-0.4167 (  1616 PWs)   bands (ev):

    -7.0387  -4.2221   2.2334   2.2334   4.1473   5.0599   5.0599   7.0017
    11.4130  11.4130  12.3826  15.2486  15.2486  16.4366

          k = 0.5000-0.5000 0.5000 (  1622 PWs)   bands (ev):

    -6.4518  -4.9998   2.1957   2.1957   4.1154   4.9326   4.9326   6.8462
    12.9370  12.9370  13.1828  13.5214  13.5214  15.7649

          k = 0.0000 0.1667 0.0000 (  1615 PWs)   bands (ev):

    -9.3051   2.8311   2.8311   2.9716   4.2709   5.8522   5.8522   7.1690
     8.3703   8.4687  10.0407  11.5171  11.5171  12.1910

          k =-0.0833 0.2500-0.0833 (  1599 PWs)   bands (ev):

    -9.0710   1.2202   2.3394   2.7871   4.3862   5.9984   6.5173   6.7642
     8.9154   9.4424   9.5967  11.0985  12.7035  13.6169

          k =-0.1667 0.3333-0.1667 (  1610 PWs)   bands (ev):

    -8.6392  -0.5679   1.9837   2.3601   4.6014   5.8223   6.6203   6.7295
     9.3402   9.5728  10.0472  12.4656  14.5586  15.5993

          k =-0.2500 0.4167-0.2500 (  1606 PWs)   bands (ev):

    -8.0175  -2.2373   1.7856   1.9557   4.3552   5.5222   6.3408   7.4478
     8.8445  10.5009  11.3155  14.7678  16.5025  17.5518

          k =-0.3333 0.5000-0.3333 (  1616 PWs)   bands (ev):

    -7.2326  -3.7124   1.6074   1.7463   4.1375   5.2986   5.8400   7.8577
     9.4000  11.9244  12.6699  15.0276  15.7141  17.4187

          k = 0.5833-0.4167 0.5833 (  1615 PWs)   bands (ev):

    -6.4576  -4.8034   1.3293   1.8561   4.1356   5.1663   5.4626   7.7821
    10.9000  12.8476  13.3568  13.7700  14.7109  16.7228

          k = 0.5000-0.3333 0.5000 (  1616 PWs)   bands (ev):

    -6.6801  -4.5173   1.1506   2.0957   4.3549   5.1334   5.2818   7.8845
    11.0627  11.5079  13.1973  14.3206  15.6229  16.6935

          k = 0.4167-0.2500 0.4167 (  1611 PWs)   bands (ev):

    -7.5090  -3.2459   1.1021   2.4361   4.7035   5.2778   5.3175   8.1399
     9.4428  10.2595  12.8376  15.0433  16.4360  17.6909

          k = 0.3333-0.1667 0.3333 (  1605 PWs)   bands (ev):

    -8.2452  -1.6970   1.2059   2.8433   5.0116   5.5068   5.7124   8.0393
     8.1643   9.6197  11.4720  13.8993  15.5992  17.5680

          k = 0.2500-0.0833 0.2500 (  1600 PWs)   bands (ev):

    -8.8050   0.0204   1.4763   3.2729   5.2942   5.5049   6.0617   7.5100
     7.6204   9.8385  10.3684  11.7882  13.4662  15.7802

          k = 0.1667-0.0000 0.1667 (  1592 PWs)   bands (ev):

    -9.1713   1.7057   2.0267   3.5764   5.1378   5.4246   5.6718   7.6683
     8.1215   9.0892   9.4063  11.4575  11.7908  13.9205

          k = 0.0000 0.3333 0.0000 (  1607 PWs)   bands (ev):

    -8.9037   1.6852   1.8007   1.8007   3.2963   5.5095   7.3403   7.3403
     9.5350  10.0591  10.4534  12.2204  12.2204  12.8389

          k =-0.0833 0.4167-0.0833 (  1616 PWs)   bands (ev):

    -8.5378   0.1474   1.4035   1.5217   3.4118   4.8622   7.5525   7.8600
    10.5033  10.6755  10.8797  12.2640  13.4810  14.5082

          k =-0.1667 0.5000-0.1667 (  1611 PWs)   bands (ev):

    -7.9791  -1.5053   0.9687   1.1725   3.3887   5.3960   7.3477   7.6558
    10.4133  11.2194  11.9982  14.0793  15.3542  16.7626

          k =-0.2500 0.5833-0.2500 (  1610 PWs)   bands (ev):

    -7.2442  -3.0256   0.4333   1.1145   3.2099   6.4359   7.1355   7.3395
     9.9755  12.5475  13.2975  14.9584  15.4943  17.1387

          k = 0.6667-0.3333 0.6667 (  1607 PWs)   bands (ev):

    -6.4167  -4.2829  -0.0134   1.2283   3.2368   6.5823   6.6606   8.4890
     9.8058  12.7882  13.4696  14.2807  15.3391  18.6178

          k = 0.5833-0.2500 0.5833 (  1602 PWs)   bands (ev):

    -6.1984  -4.5601  -0.3294   1.5058   3.4981   6.3350   6.4495   9.5180
    10.2612  10.8900  12.2695  16.1232  16.3689  17.6362

          k = 0.5000-0.1667 0.5000 (  1610 PWs)   bands (ev):

    -6.9735  -3.4713  -0.4866   1.9296   3.9747   6.1850   6.3787   9.1694
     9.1878  10.6747  12.8878  15.3887  16.3609  18.1500

          k = 0.4167-0.0833 0.4167 (  1613 PWs)   bands (ev):

    -7.7556  -2.0153  -0.4624   2.4618   4.6318   6.1666   6.3979   7.8064
     8.0415  11.0389  13.4946  14.2081  15.2601  16.0831

          k = 0.3333 0.0000 0.3333 (  1604 PWs)   bands (ev):

    -8.3749  -0.5361  -0.0943   3.0062   5.3686   5.9174   6.2540   7.2055
     7.2115  11.1645  12.2231  12.4206  13.9383  17.4530

          k = 0.0000 0.5000 0.0000 (  1612 PWs)   bands (ev):

    -8.2382   0.1891   0.9571   0.9571   2.4585   3.7286   8.8687   8.8687
    11.1405  11.4299  12.0434  13.4563  13.4563  13.6805

          k =-0.0833 0.5833-0.0833 (  1617 PWs)   bands (ev):

    -7.7440  -0.9328   0.2277   0.6768   2.5466   3.5686   9.1009   9.1252
    11.8041  12.4431  12.7077  13.8324  14.7298  15.8031

          k =-0.1667 0.6667-0.1667 (  1620 PWs)   bands (ev):

    -7.0666  -2.2953  -0.5951   0.5728   2.4549   4.6609   8.6967   8.8623
    12.0310  13.1241  14.0571  15.0088  15.1646  16.7598

          k = 0.7500-0.2500 0.7500 (  1617 PWs)   bands (ev):

    -6.2503  -3.5807  -1.2368   0.6472   2.4781   6.1361   8.1865   8.6042
    11.6579  12.8739  13.8290  14.8245  15.8272  18.2690

          k = 0.6667-0.1667 0.6667 (  1607 PWs)   bands (ev):

    -5.6739  -4.3092  -1.6900   0.8963   2.7200   7.4557   7.7859   8.7459
    10.8992  10.9271  12.9477  16.6678  17.0749  18.4628

          k = 0.5833-0.0833 0.5833 (  1611 PWs)   bands (ev):

    -6.2731  -3.5233  -1.9418   1.3093   3.1762   7.5327   7.7193   9.1312
     9.3621  10.3881  12.9925  15.5938  18.2500  18.6388

          k = 0.5000 0.0000 0.5000 (  1604 PWs)   bands (ev):

    -7.0838  -2.3550  -1.8153   1.8583   3.8296   7.2110   7.4697   7.8516
     8.2540  11.8991  13.5415  13.6768  16.4195  17.6129

          k = 0.0000 0.6667 0.0000 (  1624 PWs)   bands (ev):

    -7.3146  -1.4693   0.3428   0.3428   1.8578   2.5078  10.3637  10.3637
    12.1011  13.2262  14.0812  15.0927  15.1647  15.1647

          k =-0.0833 0.7500-0.0833 (  1618 PWs)   bands (ev):

    -6.6985  -2.3563  -0.5960   0.1849   1.9212   2.8455  10.4109  10.5861
    13.2895  14.1056  14.4745  15.1797  15.4747  16.3663

          k = 0.8333-0.1667 0.8333 (  1619 PWs)   bands (ev):

    -5.9214  -3.2446  -1.7556   0.2074   1.9320   4.2429   9.9333  10.3153
    13.0616  13.1133  15.0338  15.0932  16.0554  17.5918

          k = 0.7500-0.0833 0.7500 (  1620 PWs)   bands (ev):

    -5.1657  -3.9937  -2.5729   0.4092   2.1370   5.9112   9.4845  10.0070
    11.0891  11.4604  14.9123  17.0440  17.0537  18.3605

          k = 0.6667 0.0000 0.6667 (  1612 PWs)   bands (ev):

    -5.4782  -3.6775  -2.8535   0.7830   2.5546   7.6002   9.0046   9.4178
     9.7993   9.9080  15.0015  15.2872  18.7356  18.8266

          k = 0.0000 0.8333 0.0000 (  1628 PWs)   bands (ev):

    -6.1441  -3.1614  -0.0293  -0.0293   1.5292   1.8018  11.8665  11.8665
    13.3335  14.5815  15.1505  15.1505  15.5804  16.6007

          k = 0.9167-0.0833 0.9167 (  1622 PWs)   bands (ev):

    -5.4186  -3.9396  -0.9376  -0.0629   1.6046   2.5200  11.8269  12.0827
    13.4642  13.6055  14.8749  15.6515  16.4761  16.5848

          k = 0.8333 0.0000 0.8333 (  1614 PWs)   bands (ev):

    -4.6919  -4.4784  -2.0866   0.0848   1.7646   4.1058  11.2523  11.5667
    11.7115  11.8824  16.4860  16.8777  17.1121  17.2434

          k = 0.0000-1.0000 0.0000 (  1604 PWs)   bands (ev):

    -4.7465  -4.7465  -0.1538  -0.1538   1.4984   1.4984  13.3096  13.3096
    13.6238  13.6238  14.8349  14.8349  15.5620  15.5620

          k =-0.1667 0.3333 0.0000 (  1603 PWs)   bands (ev):

    -8.7711   0.5627   0.9757   2.7529   4.3429   5.9365   6.4999   6.9070
     8.8871  10.4407  10.7054  11.8885  12.6716  15.0577

          k =-0.2500 0.4167-0.0833 (  1607 PWs)   bands (ev):

    -8.2756  -1.0122   0.4903   2.3246   4.5575   5.8387   6.3346   7.1597
     9.0779  10.6555  12.0628  13.0626  14.5174  17.0492

          k =-0.3333 0.5000-0.1667 (  1604 PWs)   bands (ev):

    -7.5959  -2.6027   0.3118   1.8120   4.4139   5.4891   6.9972   7.2710
     9.6322  10.6980  13.3861  14.7430  15.7506  16.8224

          k = 0.5833-0.4167 0.7500 (  1612 PWs)   bands (ev):

    -6.7768  -3.9814   0.2688   1.4085   4.3523   5.0546   6.8608   8.5589
     9.6070  11.8088  13.1224  14.8236  15.9999  17.7277

          k = 0.5000-0.3333 0.6667 (  1602 PWs)   bands (ev):

    -6.1896  -4.7566   0.2768   1.2468   4.3786   4.8502   6.8168   8.9600
    10.3392  11.2758  13.6395  14.1104  16.3389  17.4041

          k =-0.1667 0.5000 0.0000 (  1617 PWs)   bands (ev):

    -8.1080  -0.4965   0.1180   1.3489   3.5373   4.3570   7.6123   8.6086
    10.3825  11.9208  12.4456  12.7168  14.1990  16.0235

          k =-0.2500 0.5833-0.0833 (  1611 PWs)   bands (ev):

    -7.4894  -1.8649  -0.3840   0.8025   3.6540   5.0325   7.1197   8.8354
    11.0133  11.8199  13.7968  14.3408  15.5101  16.1233

          k = 0.6667-0.3333 0.8333 (  1617 PWs)   bands (ev):

    -6.7084  -3.2723  -0.6586   0.4296   3.6321   6.0902   6.9225   8.7172
    11.0859  12.3472  13.3332  15.2659  16.0451  16.8312

          k = 0.5833-0.2500 0.7500 (  1607 PWs)   bands (ev):

    -5.9356  -4.3383  -0.9382   0.4068   3.7901   5.9556   8.0431   8.7925
    10.3091  11.5344  13.8106  14.5367  17.2975  18.8042

          k = 0.5000-0.1667 0.6667 (  1605 PWs)   bands (ev):

    -6.1643  -4.0440  -1.1601   0.6833   4.1341   5.7113   8.2383   8.7279
    10.2273  11.1105  12.6048  16.1249  17.2300  17.8608

          k = 0.4167-0.0833 0.5833 (  1610 PWs)   bands (ev):

    -6.9894  -2.8008  -1.2355   1.1713   4.6364   5.6025   7.1348   8.2728
    10.0396  11.5810  13.0551  14.8886  16.1690  17.7224

          k = 0.3333 0.0000 0.5000 (  1606 PWs)   bands (ev):

    -7.7201  -1.4816  -0.9586   1.7894   5.2293   5.3232   6.2211   8.0059
     9.0791  12.0185  12.9097  14.3709  15.1937  15.7748

          k =-0.1667 0.6667-0.0000 (  1626 PWs)   bands (ev):

    -7.1892  -1.6710  -0.4963   0.0665   2.9475   3.3460   8.7596  10.2682
    12.1613  13.4040  13.8988  14.3418  15.6875  16.1538

          k = 0.7500-0.2500 0.9167 (  1621 PWs)   bands (ev):

    -6.4600  -2.6857  -1.3275  -0.2872   3.0600   4.4725   8.2128  10.4922
    12.4939  13.1917  13.9438  15.4942  16.0713  16.2542

          k = 0.6667-0.1667 0.8333 (  1616 PWs)   bands (ev):

    -5.6381  -3.7405  -1.9803  -0.2461   3.1910   6.0186   7.7772  10.3047
    10.7147  13.0616  14.3128  15.0125  17.6332  18.0328

          k = 0.5833-0.0833 0.7500 (  1614 PWs)   bands (ev):

    -5.4500  -3.9376  -2.3880   0.0424   3.5127   7.0406   8.0608   8.9713
    10.1430  11.7200  14.0346  16.3580  17.0671  19.2843

          k = 0.5000 0.0000 0.6667 (  1621 PWs)   bands (ev):

    -6.2239  -3.0558  -2.3867   0.5303   4.0147   6.7962   7.3334   9.2704
    10.3769  10.5164  14.2432  14.4519  18.0687  18.6187

          k = 0.8333-0.1667 1.0000 (  1617 PWs)   bands (ev):

    -6.0283  -3.1371  -0.8475  -0.6550   2.6096   2.7747  10.0361  11.8760
    13.0485  13.7939  15.1975  15.7170  15.7265  16.3472

          k = 0.7500-0.0833 0.9167 (  1620 PWs)   bands (ev):

    -5.2212  -3.8511  -1.9522  -0.6855   2.7699   4.1989   9.5267  11.0458
    12.0795  13.7199  15.1481  16.0204  16.8871  17.7411

          k = 0.6667 0.0000 0.8333 (  1620 PWs)   bands (ev):

    -4.8020  -4.1189  -2.7401  -0.4216   3.0473   5.9234   9.0734   9.2041
    11.6268  12.1840  16.0793  16.1875  16.9190  17.9770

          k =-0.1667-1.0000 0.0000 (  1622 PWs)   bands (ev):

    -4.6540  -4.6540  -0.9155  -0.9155   2.5442   2.5442  11.4897  11.4897
    13.5114  13.5114  15.2618  15.2618  17.1263  17.1263

          k = 0.6667-0.3333 1.0000 (  1610 PWs)   bands (ev):

    -6.8182  -2.3072  -1.5637   0.0914   4.7621   4.9093   6.5678   9.9345
    11.2842  12.2072  13.8982  14.2532  16.3846  17.6046

          k = 0.5833-0.2500 0.9167 (  1611 PWs)   bands (ev):

    -6.0082  -3.3765  -1.8396  -0.4511   4.8244   5.6797   6.7472  10.0268
    10.6649  12.3437  13.6897  15.7937  16.4624  18.1885

          k = 0.5000-0.1667 0.8333 (  1610 PWs)   bands (ev):

    -5.4187  -4.1130  -1.8502  -0.6601   4.8534   5.6141   7.9848   8.7669
    10.4347  12.9302  14.3189  14.6671  18.2208  18.6125

          k = 0.6667-0.1667 1.0000 (  1618 PWs)   bands (ev):

    -5.6954  -3.2177  -1.8771  -1.2371   4.4272   4.5071   7.6451  10.5903
    11.8887  13.5030  15.2927  15.4629  15.7157  18.1275

          k = 0.5833-0.0833 0.9167 (  1615 PWs)   bands (ev):

    -4.9309  -3.8765  -2.4157  -1.4134   4.6462   6.0063   7.3020   8.6793
    12.1920  14.0134  14.9236  15.4570  17.1408  18.1358

          k = 0.5000 0.0000 0.8333 (  1612 PWs)   bands (ev):

    -5.2132  -3.6255  -2.5948  -1.0835   4.9643   6.3989   6.9852   8.4088
    11.7867  12.8141  15.5676  15.5881  16.1818  18.3383

          k =-0.3333-1.0000 0.0000 (  1618 PWs)   bands (ev):

    -4.4244  -4.4244  -1.8325  -1.8325   4.3397   4.3397   9.0246   9.0246
    13.6079  13.6079  15.4825  15.4825  17.5130  17.5130

          k =-0.5000-1.0000 0.0000 (  1628 PWs)   bands (ev):

    -4.2706  -4.2706  -2.2284  -2.2284   5.9278   5.9278   7.2117   7.2117
    13.6622  13.6622  15.6256  15.6256  17.1253  17.1253

     the Fermi energy is    19.2843 ev

     Writing output data file Si.save

     init_run     :      0.19s CPU      0.19s WALL (       1 calls)
     electrons    :     42.72s CPU     43.48s WALL (       1 calls)

     Called by init_run:
     wfcinit      :      0.00s CPU      0.00s WALL (       1 calls)
     potinit      :      0.06s CPU      0.06s WALL (       1 calls)

     Called by electrons:
     c_bands      :     42.64s CPU     43.40s WALL (       1 calls)
     v_of_rho     :      0.05s CPU      0.05s WALL (       1 calls)

     Called by c_bands:
     init_us_2    :      0.09s CPU      0.10s WALL (      72 calls)
     cegterg      :     36.17s CPU     36.79s WALL (      99 calls)

     Called by *egterg:
     h_psi        :     34.28s CPU     34.94s WALL (    1550 calls)
     g_psi        :      0.09s CPU      0.09s WALL (    1379 calls)
     cdiaghg      :      1.09s CPU      1.12s WALL (    1451 calls)

     Called by h_psi:
     add_vuspsi   :      0.97s CPU      0.98s WALL (    1550 calls)

     General routines
     calbec       :      1.06s CPU      1.07s WALL (    1550 calls)
     fft          :      0.03s CPU      0.03s WALL (      10 calls)
     fftw         :     30.63s CPU     31.27s WALL (   29858 calls)
     davcio       :      0.00s CPU      0.01s WALL (      72 calls)

     Parallel routines
     fft_scatter  :      0.73s CPU      0.73s WALL (   29868 calls)

     PWSCF        :    44.70s CPU        45.48s WALL


   This run was terminated on:  21:11:33  13Feb2023            

=------------------------------------------------------------------------------=
   JOB DONE.
=------------------------------------------------------------------------------=
