
     Program PWSCF v.5.1 starts on 13Feb2023 at 21:10:13 

     This program is part of the open-source Quantum ESPRESSO suite
     for quantum simulation of materials; please cite
         "P. Giannozzi et al., J. Phys.:Condens. Matter 21 395502 (2009);
          URL http://www.quantum-espresso.org", 
     in publications or presentations arising from this work. More details at
     http://www.quantum-espresso.org/quote

     Parallel version (MPI), running on     1 processors
     Waiting for input...
     Reading input from standard input

     Current dimensions of program PWSCF are:
     Max number of different atomic species (ntypx) = 10
     Max number of k-points (npk) =  40000
     Max angular momentum in pseudopotentials (lmaxx) =  3
               file Si.pbe-mt_fhi.UPF: wavefunction(s)  4f renormalized

     Subspace diagonalization in iterative solution of the eigenvalue problem:
     a serial algorithm will be used


     G-vector sticks info
     --------------------
     sticks:   dense  smooth     PW     G-vecs:    dense   smooth      PW
     Sum         733     733    211                12939    12939    2109



     bravais-lattice index     =            2
     lattice parameter (alat)  =      10.2623  a.u.
     unit-cell volume          =     270.1967 (a.u.)^3
     number of atoms/cell      =            2
     number of atomic types    =            1
     number of electrons       =        28.00
     number of Kohn-Sham states=           14
     kinetic-energy cutoff     =      50.0000  Ry
     charge density cutoff     =     200.0000  Ry
     convergence threshold     =      1.6E-09
     mixing beta               =       0.3000
     number of iterations used =            8  plain     mixing
     Exchange-correlation      = PBE ( 1  4  3  4 0)

     celldm(1)=  10.262347  celldm(2)=   0.000000  celldm(3)=   0.000000
     celldm(4)=   0.000000  celldm(5)=   0.000000  celldm(6)=   0.000000

     crystal axes: (cart. coord. in units of alat)
               a(1) = (  -0.500000   0.000000   0.500000 )  
               a(2) = (   0.000000   0.500000   0.500000 )  
               a(3) = (  -0.500000   0.500000   0.000000 )  

     reciprocal axes: (cart. coord. in units 2 pi/alat)
               b(1) = ( -1.000000 -1.000000  1.000000 )  
               b(2) = (  1.000000  1.000000  1.000000 )  
               b(3) = ( -1.000000  1.000000 -1.000000 )  


     PseudoPot. # 1 for Si read from file:
     /home/acedemo/psudo/Si.pbe-mt_fhi.UPF
     MD5 check sum: 259057c2adf9952f9ced37ae3d9e311d
     Pseudo is Norm-conserving, Zval =  4.0
     Generated using FHI98PP, converted with fhi2upf.x v.5.0.2
     Using radial grid of  495 points,  3 beta functions with: 
                l(1) =   0
                l(2) =   1
                l(3) =   3

     atomic species   valence    mass     pseudopotential
        Si             4.00    28.08550     Si( 1.00)

     48 Sym. Ops., with inversion, found (24 have fractional translation)



   Cartesian axes

     site n.     atom                  positions (alat units)
         1           Si  tau(   1) = (   0.0000000   0.0000000   0.0000000  )
         2           Si  tau(   2) = (   0.2500000   0.2500000   0.2500000  )

     number of k points=    10  Marzari-Vanderbilt smearing, width (Ry)=  0.0500
                       cart. coord. in units 2pi/alat
        k(    1) = (   0.0000000   0.0000000   0.0000000), wk =   0.0160000
        k(    2) = (  -0.2000000   0.2000000  -0.2000000), wk =   0.1280000
        k(    3) = (  -0.4000000   0.4000000  -0.4000000), wk =   0.1280000
        k(    4) = (   0.0000000   0.4000000   0.0000000), wk =   0.0960000
        k(    5) = (  -0.2000000   0.6000000  -0.2000000), wk =   0.3840000
        k(    6) = (   0.6000000  -0.2000000   0.6000000), wk =   0.3840000
        k(    7) = (   0.4000000   0.0000000   0.4000000), wk =   0.1920000
        k(    8) = (   0.0000000   0.8000000   0.0000000), wk =   0.0960000
        k(    9) = (   0.8000000   0.0000000   0.8000000), wk =   0.1920000
        k(   10) = (   0.6000000  -0.2000000   1.0000000), wk =   0.3840000

     Dense  grid:    12939 G-vectors     FFT dimensions: (  36,  36,  36)

     Largest allocated arrays     est. size (Mb)     dimensions
        Kohn-Sham Wavefunctions         0.35 Mb     (    1639,   14)
        NL pseudopotentials             0.55 Mb     (    1639,   22)
        Each V/rho on FFT grid          0.71 Mb     (   46656)
        Each G-vector array             0.10 Mb     (   12939)
        G-vector shells                 0.00 Mb     (     180)
     Largest temporary arrays     est. size (Mb)     dimensions
        Auxiliary wavefunctions         1.40 Mb     (    1639,   56)
        Each subspace H/S matrix        0.05 Mb     (      56,   56)
        Each <psi_i|beta_j> matrix      0.00 Mb     (      22,   14)
        Arrays for rho mixing           5.70 Mb     (   46656,    8)

     Initial potential from superposition of free atoms

     starting charge    7.99859, renormalised to   28.00000
     Starting wfc are   32 randomized atomic wfcs

     total cpu time spent up to now is        1.1 secs

     per-process dynamical memory:    17.1 Mb

     Self-consistent Calculation

     iteration #  1     ecut=    50.00 Ry     beta=0.30
     Davidson diagonalization with overlap
     ethr =  1.00E-02,  avg # of iterations =  4.2

     total cpu time spent up to now is        3.3 secs

     total energy              =       4.43407033 Ry
     Harris-Foulkes estimate   =      -3.54178539 Ry
     estimated scf accuracy    <      18.98348336 Ry

     iteration #  2     ecut=    50.00 Ry     beta=0.30
     Davidson diagonalization with overlap
     ethr =  1.00E-02,  avg # of iterations =  3.5

     total cpu time spent up to now is        5.2 secs

     total energy              =       3.25251304 Ry
     Harris-Foulkes estimate   =       2.50281752 Ry
     estimated scf accuracy    <       1.35418878 Ry

     iteration #  3     ecut=    50.00 Ry     beta=0.30
     Davidson diagonalization with overlap
     ethr =  4.84E-03,  avg # of iterations =  2.7

     total cpu time spent up to now is        7.2 secs

     total energy              =       2.95104736 Ry
     Harris-Foulkes estimate   =       2.95077219 Ry
     estimated scf accuracy    <       0.00358235 Ry

     iteration #  4     ecut=    50.00 Ry     beta=0.30
     Davidson diagonalization with overlap
     ethr =  1.28E-05,  avg # of iterations =  3.8

     total cpu time spent up to now is        8.9 secs

     total energy              =       2.92807496 Ry
     Harris-Foulkes estimate   =       2.93365986 Ry
     estimated scf accuracy    <       0.00746449 Ry

     iteration #  5     ecut=    50.00 Ry     beta=0.30
     Davidson diagonalization with overlap
     ethr =  1.28E-05,  avg # of iterations =  3.1

     total cpu time spent up to now is       10.4 secs

     total energy              =       2.94425995 Ry
     Harris-Foulkes estimate   =       2.92632905 Ry
     estimated scf accuracy    <       0.02936819 Ry

     iteration #  6     ecut=    50.00 Ry     beta=0.30
     Davidson diagonalization with overlap
     ethr =  1.28E-05,  avg # of iterations =  3.7

     total cpu time spent up to now is       12.0 secs

     total energy              =       2.93569279 Ry
     Harris-Foulkes estimate   =       2.93472638 Ry
     estimated scf accuracy    <       0.00364441 Ry

     iteration #  7     ecut=    50.00 Ry     beta=0.30
     Davidson diagonalization with overlap
     ethr =  1.28E-05,  avg # of iterations =  1.1

     total cpu time spent up to now is       13.1 secs

     total energy              =       2.93629873 Ry
     Harris-Foulkes estimate   =       2.93557733 Ry
     estimated scf accuracy    <       0.00131557 Ry

     iteration #  8     ecut=    50.00 Ry     beta=0.30
     Davidson diagonalization with overlap
     ethr =  4.70E-06,  avg # of iterations =  2.7

     total cpu time spent up to now is       14.7 secs

     total energy              =       2.93592534 Ry
     Harris-Foulkes estimate   =       2.93590151 Ry
     estimated scf accuracy    <       0.00003882 Ry

     iteration #  9     ecut=    50.00 Ry     beta=0.30
     Davidson diagonalization with overlap
     ethr =  1.39E-07,  avg # of iterations =  3.6

     total cpu time spent up to now is       16.7 secs

     total energy              =       2.93596103 Ry
     Harris-Foulkes estimate   =       2.93584515 Ry
     estimated scf accuracy    <       0.00020575 Ry

     iteration # 10     ecut=    50.00 Ry     beta=0.30
     Davidson diagonalization with overlap
     ethr =  1.39E-07,  avg # of iterations =  3.6

     total cpu time spent up to now is       19.1 secs

     total energy              =       2.93591420 Ry
     Harris-Foulkes estimate   =       2.93591105 Ry
     estimated scf accuracy    <       0.00000455 Ry

     iteration # 11     ecut=    50.00 Ry     beta=0.30
     Davidson diagonalization with overlap
     ethr =  1.62E-08,  avg # of iterations =  3.5

     total cpu time spent up to now is       21.4 secs

     total energy              =       2.93591281 Ry
     Harris-Foulkes estimate   =       2.93591130 Ry
     estimated scf accuracy    <       0.00000355 Ry

     iteration # 12     ecut=    50.00 Ry     beta=0.30
     Davidson diagonalization with overlap
     ethr =  1.27E-08,  avg # of iterations =  2.1

     total cpu time spent up to now is       23.3 secs

     total energy              =       2.93591256 Ry
     Harris-Foulkes estimate   =       2.93591243 Ry
     estimated scf accuracy    <       0.00000027 Ry

     iteration # 13     ecut=    50.00 Ry     beta=0.30
     Davidson diagonalization with overlap
     ethr =  9.51E-10,  avg # of iterations =  2.8

     total cpu time spent up to now is       25.0 secs

     End of self-consistent calculation

          k = 0.0000 0.0000 0.0000 (  1639 PWs)   bands (ev):

    -9.4392   3.6433   3.6433   3.6433   4.8775   4.8775   4.8775   6.7581
     7.5225   9.9030   9.9030  11.2917  11.2917  11.2917

          k =-0.2000 0.2000-0.2000 (  1606 PWs)   bands (ev):

    -8.8624  -0.1602   2.7808   2.7808   4.6398   5.8753   5.8753   8.3503
     8.4574   8.4574   9.1879  11.7984  14.8504  14.8504

          k =-0.4000 0.4000-0.4000 (  1616 PWs)   bands (ev):

    -7.2079  -3.9691   2.2506   2.2506   4.1621   5.1140   5.1140   7.0689
    11.0862  11.0862  12.1240  15.6638  15.6638  16.5402

          k = 0.0000 0.4000 0.0000 (  1607 PWs)   bands (ev):

    -8.6689   1.1093   1.4372   1.4372   2.9363   4.7383   7.9539   7.9539
    10.2712  10.6953  10.8300  12.6488  12.6488  13.1325

          k =-0.2000 0.6000-0.2000 (  1619 PWs)   bands (ev):

    -7.3515  -2.4306   0.0961   0.8826   2.9016   5.5613   7.8419   7.8722
    10.8326  12.5098  13.3489  15.2643  15.3600  16.9257

          k = 0.6000-0.2000 0.6000 (  1596 PWs)   bands (ev):

    -6.0859  -4.3746  -0.9526   1.3256   3.2436   6.8276   6.9880   9.7606
    10.1316  10.5067  12.2239  16.7350  16.8832  18.1716

          k = 0.4000 0.0000 0.4000 (  1610 PWs)   bands (ev):

    -7.9141  -1.3206  -0.8441   2.5772   4.7648   6.3736   6.6971   7.3176
     7.5155  11.7406  12.6954  13.9588  15.2516  15.6675

          k = 0.0000 0.8000 0.0000 (  1624 PWs)   bands (ev):

    -6.3972  -2.8280   0.0254   0.0254   1.5719   1.9078  11.5615  11.5615
    13.0654  14.3397  15.3807  15.4537  15.4537  16.8101

          k = 0.8000 0.0000 0.8000 (  1622 PWs)   bands (ev):

    -4.7185  -4.3607  -2.4447   0.1889   1.8813   4.8058  10.7721  11.1012
    11.2569  11.4783  16.4935  16.7894  17.3079  17.6659

          k = 0.6000-0.2000 1.0000 (  1616 PWs)   bands (ev):

    -5.7442  -3.1888  -2.1843  -1.0062   5.1905   5.2726   6.6461   9.9720
    11.5042  12.7925  15.0755  15.1653  16.2182  18.4255

     the Fermi energy is    18.9168 ev

!    total energy              =       2.93591248 Ry
     Harris-Foulkes estimate   =       2.93591248 Ry
     estimated scf accuracy    <          8.1E-10 Ry

     The total energy is the sum of the following terms:

     one-electron contribution =      40.55365519 Ry
     hartree contribution      =       1.97805622 Ry
     xc contribution           =     -22.80329968 Ry
     ewald contribution        =     -16.79708774 Ry
     smearing contrib. (-TS)   =       0.00458850 Ry

     convergence has been achieved in  13 iterations

     Forces acting on atoms (Ry/au):

     atom    1 type  1   force =     0.00000000    0.00000000    0.00000000
     atom    2 type  1   force =    -0.00000000   -0.00000000   -0.00000000

     Total force =     0.000000     Total SCF correction =     0.000000


     entering subroutine stress ...

          total   stress  (Ry/bohr**3)                   (kbar)     P=11396.65
   0.07747285  -0.00000000  -0.00000000      11396.65     -0.00     -0.00
  -0.00000000   0.07747285   0.00000000         -0.00  11396.65      0.00
  -0.00000000   0.00000000   0.07747285         -0.00      0.00  11396.65


     Writing output data file Si.save

     init_run     :      0.99s CPU      1.04s WALL (       1 calls)
     electrons    :     22.35s CPU     23.88s WALL (       1 calls)
     forces       :      0.11s CPU      0.11s WALL (       1 calls)
     stress       :      0.56s CPU      0.59s WALL (       1 calls)

     Called by init_run:
     wfcinit      :      0.81s CPU      0.83s WALL (       1 calls)
     potinit      :      0.06s CPU      0.06s WALL (       1 calls)

     Called by electrons:
     c_bands      :     18.94s CPU     20.33s WALL (      13 calls)
     sum_band     :      2.81s CPU      2.90s WALL (      13 calls)
     v_of_rho     :      0.59s CPU      0.64s WALL (      14 calls)
     mix_rho      :      0.04s CPU      0.05s WALL (      13 calls)

     Called by c_bands:
     init_us_2    :      0.46s CPU      0.48s WALL (     290 calls)
     cegterg      :     18.57s CPU     19.93s WALL (     130 calls)

     Called by *egterg:
     h_psi        :     16.51s CPU     17.68s WALL (     544 calls)
     g_psi        :      0.04s CPU      0.04s WALL (     404 calls)
     cdiaghg      :      0.39s CPU      0.42s WALL (     534 calls)

     Called by h_psi:
     add_vuspsi   :      0.46s CPU      0.50s WALL (     544 calls)

     General routines
     calbec       :      0.55s CPU      0.58s WALL (     564 calls)
     fft          :      0.23s CPU      0.25s WALL (     161 calls)
     fftw         :     16.84s CPU     17.95s WALL (   13630 calls)
     davcio       :      0.00s CPU      0.00s WALL (      10 calls)

     Parallel routines
     fft_scatter  :      0.45s CPU      0.46s WALL (   13791 calls)

     PWSCF        :    24.11s CPU        25.73s WALL


   This run was terminated on:  21:10:39  13Feb2023            

=------------------------------------------------------------------------------=
   JOB DONE.
=------------------------------------------------------------------------------=
