
     Program PWSCF v.5.1 starts on 13Feb2023 at 14:37:57 

     This program is part of the open-source Quantum ESPRESSO suite
     for quantum simulation of materials; please cite
         "P. Giannozzi et al., J. Phys.:Condens. Matter 21 395502 (2009);
          URL http://www.quantum-espresso.org", 
     in publications or presentations arising from this work. More details at
     http://www.quantum-espresso.org/quote

     Parallel version (MPI), running on     1 processors
     Waiting for input...
     Reading input from standard input
Warning: card    SI   -0.50    0.00    0.50 ignored
Warning: card    SI   -0.25    0.25    0.75 ignored

     Current dimensions of program PWSCF are:
     Max number of different atomic species (ntypx) = 10
     Max number of k-points (npk) =  40000
     Max angular momentum in pseudopotentials (lmaxx) =  3

     Atomic positions and unit cell read from directory:
     ./out/Si.save/

               file Si.pbe-mt_fhi.UPF: wavefunction(s)  4f renormalized
               file B.pbe-mt_fhi.UPF: wavefunction(s)  4f renormalized

     Subspace diagonalization in iterative solution of the eigenvalue problem:
     a serial algorithm will be used


     G-vector sticks info
     --------------------
     sticks:   dense  smooth     PW     G-vecs:    dense   smooth      PW
     Sum         733     733    223                12939    12939    2229



     bravais-lattice index     =            2
     lattice parameter (alat)  =      10.2623  a.u.
     unit-cell volume          =     270.1967 (a.u.)^3
     number of atoms/cell      =            2
     number of atomic types    =            2
     number of electrons       =         7.00
     number of Kohn-Sham states=           12
     kinetic-energy cutoff     =      50.0000  Ry
     charge density cutoff     =     200.0000  Ry
     Exchange-correlation      = PBE ( 1  4  3  4 0)

     celldm(1)=  10.262347  celldm(2)=   0.000000  celldm(3)=   0.000000
     celldm(4)=   0.000000  celldm(5)=   0.000000  celldm(6)=   0.000000

     crystal axes: (cart. coord. in units of alat)
               a(1) = (  -0.500000   0.000000   0.500000 )  
               a(2) = (   0.000000   0.500000   0.500000 )  
               a(3) = (  -0.500000   0.500000   0.000000 )  

     reciprocal axes: (cart. coord. in units 2 pi/alat)
               b(1) = ( -1.000000 -1.000000  1.000000 )  
               b(2) = (  1.000000  1.000000  1.000000 )  
               b(3) = ( -1.000000  1.000000 -1.000000 )  


     PseudoPot. # 1 for Si read from file:
     /home/acedemo/psudo/Si.pbe-mt_fhi.UPF
     MD5 check sum: 259057c2adf9952f9ced37ae3d9e311d
     Pseudo is Norm-conserving, Zval =  4.0
     Generated using FHI98PP, converted with fhi2upf.x v.5.0.2
     Using radial grid of  495 points,  3 beta functions with: 
                l(1) =   0
                l(2) =   1
                l(3) =   3

     PseudoPot. # 2 for  B read from file:
     /home/acedemo/psudo/B.pbe-mt_fhi.UPF
     MD5 check sum: 3ba04917d1d3a8de85490f79a9c37fe5
     Pseudo is Norm-conserving + core correction, Zval =  3.0
     Generated using FHI98PP, converted with fhi2upf.x v.5.0.2
     Using radial grid of  453 points,  3 beta functions with: 
                l(1) =   0
                l(2) =   1
                l(3) =   3

     atomic species   valence    mass     pseudopotential
        Si             4.00    28.08550     Si( 1.00)
        B              3.00    10.81100      B( 1.00)

     24 Sym. Ops. (no inversion) found



   Cartesian axes

     site n.     atom                  positions (alat units)
         1           B   tau(   1) = (   0.0000000   0.0000000   0.0000000  )
         2           Si  tau(   2) = (   0.2500000   0.2500000   0.2500000  )

     number of k points=    72 (tetrahedron method)
                       cart. coord. in units 2pi/alat
        k(    1) = (   0.0000000   0.0000000   0.0000000), wk =   0.0011574
        k(    2) = (  -0.0833333   0.0833333  -0.0833333), wk =   0.0092593
        k(    3) = (  -0.1666667   0.1666667  -0.1666667), wk =   0.0092593
        k(    4) = (  -0.2500000   0.2500000  -0.2500000), wk =   0.0092593
        k(    5) = (  -0.3333333   0.3333333  -0.3333333), wk =   0.0092593
        k(    6) = (  -0.4166667   0.4166667  -0.4166667), wk =   0.0092593
        k(    7) = (   0.5000000  -0.5000000   0.5000000), wk =   0.0046296
        k(    8) = (   0.0000000   0.1666667   0.0000000), wk =   0.0069444
        k(    9) = (  -0.0833333   0.2500000  -0.0833333), wk =   0.0277778
        k(   10) = (  -0.1666667   0.3333333  -0.1666667), wk =   0.0277778
        k(   11) = (  -0.2500000   0.4166667  -0.2500000), wk =   0.0277778
        k(   12) = (  -0.3333333   0.5000000  -0.3333333), wk =   0.0277778
        k(   13) = (   0.5833333  -0.4166667   0.5833333), wk =   0.0277778
        k(   14) = (   0.5000000  -0.3333333   0.5000000), wk =   0.0277778
        k(   15) = (   0.4166667  -0.2500000   0.4166667), wk =   0.0277778
        k(   16) = (   0.3333333  -0.1666667   0.3333333), wk =   0.0277778
        k(   17) = (   0.2500000  -0.0833333   0.2500000), wk =   0.0277778
        k(   18) = (   0.1666667  -0.0000000   0.1666667), wk =   0.0138889
        k(   19) = (   0.0000000   0.3333333   0.0000000), wk =   0.0069444
        k(   20) = (  -0.0833333   0.4166667  -0.0833333), wk =   0.0277778
        k(   21) = (  -0.1666667   0.5000000  -0.1666667), wk =   0.0277778
        k(   22) = (  -0.2500000   0.5833333  -0.2500000), wk =   0.0277778
        k(   23) = (   0.6666667  -0.3333333   0.6666667), wk =   0.0277778
        k(   24) = (   0.5833333  -0.2500000   0.5833333), wk =   0.0277778
        k(   25) = (   0.5000000  -0.1666667   0.5000000), wk =   0.0277778
        k(   26) = (   0.4166667  -0.0833333   0.4166667), wk =   0.0277778
        k(   27) = (   0.3333333   0.0000000   0.3333333), wk =   0.0138889
        k(   28) = (   0.0000000   0.5000000   0.0000000), wk =   0.0069444
        k(   29) = (  -0.0833333   0.5833333  -0.0833333), wk =   0.0277778
        k(   30) = (  -0.1666667   0.6666667  -0.1666667), wk =   0.0277778
        k(   31) = (   0.7500000  -0.2500000   0.7500000), wk =   0.0277778
        k(   32) = (   0.6666667  -0.1666667   0.6666667), wk =   0.0277778
        k(   33) = (   0.5833333  -0.0833333   0.5833333), wk =   0.0277778
        k(   34) = (   0.5000000   0.0000000   0.5000000), wk =   0.0138889
        k(   35) = (   0.0000000   0.6666667   0.0000000), wk =   0.0069444
        k(   36) = (  -0.0833333   0.7500000  -0.0833333), wk =   0.0277778
        k(   37) = (   0.8333333  -0.1666667   0.8333333), wk =   0.0277778
        k(   38) = (   0.7500000  -0.0833333   0.7500000), wk =   0.0277778
        k(   39) = (   0.6666667   0.0000000   0.6666667), wk =   0.0138889
        k(   40) = (   0.0000000   0.8333333   0.0000000), wk =   0.0069444
        k(   41) = (   0.9166667  -0.0833333   0.9166667), wk =   0.0277778
        k(   42) = (   0.8333333   0.0000000   0.8333333), wk =   0.0138889
        k(   43) = (   0.0000000  -1.0000000   0.0000000), wk =   0.0034722
        k(   44) = (  -0.1666667   0.3333333   0.0000000), wk =   0.0277778
        k(   45) = (  -0.2500000   0.4166667  -0.0833333), wk =   0.0555556
        k(   46) = (  -0.3333333   0.5000000  -0.1666667), wk =   0.0555556
        k(   47) = (   0.5833333  -0.4166667   0.7500000), wk =   0.0555556
        k(   48) = (   0.5000000  -0.3333333   0.6666667), wk =   0.0277778
        k(   49) = (  -0.1666667   0.5000000   0.0000000), wk =   0.0277778
        k(   50) = (  -0.2500000   0.5833333  -0.0833333), wk =   0.0555556
        k(   51) = (   0.6666667  -0.3333333   0.8333333), wk =   0.0555556
        k(   52) = (   0.5833333  -0.2500000   0.7500000), wk =   0.0555556
        k(   53) = (   0.5000000  -0.1666667   0.6666667), wk =   0.0555556
        k(   54) = (   0.4166667  -0.0833333   0.5833333), wk =   0.0555556
        k(   55) = (   0.3333333   0.0000000   0.5000000), wk =   0.0277778
        k(   56) = (  -0.1666667   0.6666667  -0.0000000), wk =   0.0277778
        k(   57) = (   0.7500000  -0.2500000   0.9166667), wk =   0.0555556
        k(   58) = (   0.6666667  -0.1666667   0.8333333), wk =   0.0555556
        k(   59) = (   0.5833333  -0.0833333   0.7500000), wk =   0.0555556
        k(   60) = (   0.5000000   0.0000000   0.6666667), wk =   0.0277778
        k(   61) = (   0.8333333  -0.1666667   1.0000000), wk =   0.0277778
        k(   62) = (   0.7500000  -0.0833333   0.9166667), wk =   0.0555556
        k(   63) = (   0.6666667   0.0000000   0.8333333), wk =   0.0277778
        k(   64) = (  -0.1666667  -1.0000000   0.0000000), wk =   0.0138889
        k(   65) = (   0.6666667  -0.3333333   1.0000000), wk =   0.0277778
        k(   66) = (   0.5833333  -0.2500000   0.9166667), wk =   0.0555556
        k(   67) = (   0.5000000  -0.1666667   0.8333333), wk =   0.0277778
        k(   68) = (   0.6666667  -0.1666667   1.0000000), wk =   0.0277778
        k(   69) = (   0.5833333  -0.0833333   0.9166667), wk =   0.0555556
        k(   70) = (   0.5000000   0.0000000   0.8333333), wk =   0.0277778
        k(   71) = (  -0.3333333  -1.0000000   0.0000000), wk =   0.0138889
        k(   72) = (  -0.5000000  -1.0000000   0.0000000), wk =   0.0069444

     Dense  grid:    12939 G-vectors     FFT dimensions: (  36,  36,  36)

     Largest allocated arrays     est. size (Mb)     dimensions
        Kohn-Sham Wavefunctions         0.30 Mb     (    1639,   12)
        NL pseudopotentials             0.55 Mb     (    1639,   22)
        Each V/rho on FFT grid          0.71 Mb     (   46656)
        Each G-vector array             0.10 Mb     (   12939)
        G-vector shells                 0.00 Mb     (     180)
     Largest temporary arrays     est. size (Mb)     dimensions
        Auxiliary wavefunctions         1.20 Mb     (    1639,   48)
        Each subspace H/S matrix        0.04 Mb     (      48,   48)
        Each <psi_i|beta_j> matrix      0.00 Mb     (      22,   12)

     Check: negative/imaginary core charge=   -0.000048    0.000000

     The potential is recalculated from file :
     ./out/Si.save/charge-density.dat

     Starting wfc are   32 randomized atomic wfcs

     Band Structure Calculation
     Davidson diagonalization with overlap

     ethr =  2.29E-11,  avg # of iterations = 20.3

     total cpu time spent up to now is       37.5 secs

     End of band structure calculation

          k = 0.0000 0.0000 0.0000 (  1639 PWs)   bands (ev):

    -6.8602   4.1960   4.1960   4.1960   6.2974   7.1667   7.1667   7.1667
    12.3729  14.0839  14.0839  16.2206

          k =-0.0833 0.0833-0.0833 (  1612 PWs)   bands (ev):

    -6.7744   3.4329   4.0822   4.0822   6.5076   7.3303   7.3303   7.5363
    12.7038  13.7001  13.7001  15.9276

          k =-0.1667 0.1667-0.1667 (  1591 PWs)   bands (ev):

    -6.5199   2.0761   3.8227   3.8227   6.3700   7.6954   7.6954   8.5817
    13.2253  13.2253  13.4176  15.5675

          k =-0.2500 0.2500-0.2500 (  1618 PWs)   bands (ev):

    -6.1076   0.6768   3.5434   3.5434   6.1135   8.0252   8.0252   9.6949
    13.1725  13.1725  13.7253  15.9835

          k =-0.3333 0.3333-0.3333 (  1616 PWs)   bands (ev):

    -5.5671  -0.6116   3.3163   3.3163   5.8918   8.1776   8.1776  10.6376
    13.6743  13.6743  13.7265  16.6431

          k =-0.4167 0.4167-0.4167 (  1616 PWs)   bands (ev):

    -4.9905  -1.6503   3.1725   3.1725   5.7492   8.1955   8.1955  11.1997
    14.0483  14.5904  14.5904  16.4246

          k = 0.5000-0.5000 0.5000 (  1622 PWs)   bands (ev):

    -4.6842  -2.1127   3.1236   3.1236   5.7006   8.1865   8.1865  11.3541
    14.4299  15.2739  15.2739  15.9890

          k = 0.0000 0.1667 0.0000 (  1615 PWs)   bands (ev):

    -6.7457   3.5177   3.8621   3.8621   6.6880   7.1222   7.6134   7.6134
    12.8092  13.0755  14.2120  16.4491

          k =-0.0833 0.2500-0.0833 (  1599 PWs)   bands (ev):

    -6.5469   2.4541   3.5520   3.6875   6.6987   7.2468   8.0593   8.3887
    12.4653  13.4547  14.0423  16.1452

          k =-0.1667 0.3333-0.1667 (  1610 PWs)   bands (ev):

    -6.1859   1.1151   3.2666   3.4030   6.5838   7.5326   8.4455   9.2875
    12.3421  13.9158  14.0638  16.1034

          k =-0.2500 0.4167-0.2500 (  1606 PWs)   bands (ev):

    -5.6833  -0.1893   3.0638   3.0862   6.3875   7.8462   8.6143  10.0689
    12.7831  14.1849  14.2622  16.6553

          k =-0.3333 0.5000-0.3333 (  1616 PWs)   bands (ev):

    -5.1005  -1.3165   2.8183   2.9668   6.2304   7.9988   8.5824  10.8023
    13.4224  14.4708  15.0015  16.6050

          k = 0.5833-0.4167 0.5833 (  1615 PWs)   bands (ev):

    -4.6492  -2.0205   2.6360   2.9811   6.1528   8.0845   8.4703  11.2722
    14.0044  14.9621  15.2884  16.2239

          k = 0.5000-0.3333 0.5000 (  1616 PWs)   bands (ev):

    -4.7596  -1.8585   2.5584   3.1012   6.1662   8.1929   8.3563  11.2363
    14.1184  14.3076  15.1795  16.4262

          k = 0.4167-0.2500 0.4167 (  1611 PWs)   bands (ev):

    -5.2973  -0.9676   2.5968   3.3128   6.2692   8.2303   8.3064  10.6946
    13.2608  13.8402  14.9342  16.6911

          k = 0.3333-0.1667 0.3333 (  1605 PWs)   bands (ev):

    -5.8652   0.2341   2.7582   3.5892   6.4472   8.0137   8.2837   9.8880
    12.6278  13.6289  14.4269  16.5019

          k = 0.2500-0.0833 0.2500 (  1600 PWs)   bands (ev):

    -6.3241   1.5504   3.0498   3.8791   6.6530   7.6764   7.9413   9.0751
    12.5569  13.4569  13.9770  16.1278

          k = 0.1667-0.0000 0.1667 (  1592 PWs)   bands (ev):

    -6.6322   2.7545   3.5159   4.0847   6.7069   7.3712   7.4931   8.2402
    12.9846  13.1787  13.6735  16.2806

          k = 0.0000 0.3333 0.0000 (  1607 PWs)   bands (ev):

    -6.4043   2.2878   3.2089   3.2089   6.3380   7.7055   8.5962   8.5962
    11.8368  13.9204  14.5931  17.1206

          k =-0.0833 0.4167-0.0833 (  1616 PWs)   bands (ev):

    -6.0969   1.3377   2.8892   2.9049   6.3369   7.7241   9.0926   9.1489
    11.7978  14.6066  14.6901  17.0266

          k =-0.1667 0.5000-0.1667 (  1611 PWs)   bands (ev):

    -5.6394   0.1719   2.4849   2.6965   6.5191   7.8734   9.3635   9.3840
    12.4362  14.9386  14.9853  17.1655

          k =-0.2500 0.5833-0.2500 (  1610 PWs)   bands (ev):

    -5.0730  -0.9444   2.0887   2.6078   6.5459   8.1878   9.3681   9.7715
    13.1369  15.1297  15.4772  17.1042

          k = 0.6667-0.3333 0.6667 (  1607 PWs)   bands (ev):

    -4.5357  -1.7922   1.7781   2.6447   6.5439   8.3280   9.2151  10.5630
    13.2783  15.3603  15.5385  16.6879

          k = 0.5833-0.2500 0.5833 (  1602 PWs)   bands (ev):

    -4.4319  -1.9358   1.5899   2.8010   6.6089   8.4163   9.0066  11.0790
    13.2180  14.2010  15.7068  16.9010

          k = 0.5000-0.1667 0.5000 (  1610 PWs)   bands (ev):

    -4.8892  -1.2476   1.5513   3.0579   6.7454   8.5459   8.7573  10.5824
    13.0801  13.6875  15.7185  17.0727

          k = 0.4167-0.0833 0.4167 (  1613 PWs)   bands (ev):

    -5.4693  -0.2095   1.7046   3.3784   6.9095   8.4141   8.6071   9.7668
    12.3799  14.0243  15.2915  17.2104

          k = 0.3333 0.0000 0.3333 (  1604 PWs)   bands (ev):

    -5.9671   0.8191   2.1676   3.6920   6.9682   7.9894   8.2506   9.3821
    12.2272  13.7809  14.6774  16.9201

          k = 0.0000 0.5000 0.0000 (  1612 PWs)   bands (ev):

    -5.8431   0.9546   2.5774   2.5774   5.8579   7.6041   9.7493   9.7493
    11.6896  15.2150  15.2484  18.1483

          k =-0.0833 0.5833-0.0833 (  1617 PWs)   bands (ev):

    -5.4347   0.1398   2.1733   2.3466   5.9262   7.4282  10.0215  10.2033
    12.2964  15.5579  15.7305  18.2923

          k =-0.1667 0.6667-0.1667 (  1620 PWs)   bands (ev):

    -4.8995  -0.7829   1.6212   2.2404   6.1635   7.7777   9.9430  10.3363
    13.0966  15.7719  15.9497  18.2788

          k = 0.7500-0.2500 0.7500 (  1617 PWs)   bands (ev):

    -4.3257  -1.6136   1.1293   2.2678   6.2738   8.6233   9.9422  10.2107
    13.1635  15.5536  15.9431  17.9258

          k = 0.6667-0.1667 0.6667 (  1607 PWs)   bands (ev):

    -4.0345  -1.9803   0.8010   2.4249   6.4163   9.2049   9.9386  10.4319
    12.4749  14.3235  16.3626  17.8632

          k = 0.5833-0.0833 0.5833 (  1611 PWs)   bands (ev):

    -4.3738  -1.5395   0.7015   2.6941   6.6435   9.3710   9.5472  10.4546
    12.5446  13.2077  16.4582  17.9951

          k = 0.5000 0.0000 0.5000 (  1604 PWs)   bands (ev):

    -4.9462  -0.7969   0.9532   3.0370   6.8876   9.0087   9.3784   9.6292
    12.5392  13.5748  16.0322  17.8514

          k = 0.0000 0.6667 0.0000 (  1624 PWs)   bands (ev):

    -5.0754  -0.3937   2.0866   2.0866   5.5244   6.8711  10.9017  10.9017
    12.4537  16.0419  16.2742  18.9196

          k =-0.0833 0.7500-0.0833 (  1618 PWs)   bands (ev):

    -4.5800  -1.1048   1.6766   1.9507   5.6751   6.7444  11.0966  11.2561
    13.1051  16.2732  16.4263  18.5186

          k = 0.8333-0.1667 0.8333 (  1619 PWs)   bands (ev):

    -4.0057  -1.7964   1.0522   1.9517   5.8983   7.3864  10.9920  11.2293
    13.2672  15.9544  16.1255  18.5777

          k = 0.7500-0.0833 0.7500 (  1620 PWs)   bands (ev):

    -3.5943  -2.2225   0.5388   2.0887   6.0696   8.5533  10.8822  10.9080
    12.4495  14.7585  16.4579  19.4618

          k = 0.6667 0.0000 0.6667 (  1612 PWs)   bands (ev):

    -3.8335  -1.9702   0.3568   2.3476   6.3314   9.6311  10.3310  10.6680
    11.7458  13.7548  16.6984  19.1240

          k = 0.0000 0.8333 0.0000 (  1628 PWs)   bands (ev):

    -4.1266  -1.7042   1.7804   1.7804   5.4016   6.1858  11.8693  11.8693
    13.3369  16.5392  16.9508  18.2856

          k = 0.9167-0.0833 0.9167 (  1622 PWs)   bands (ev):

    -3.5825  -2.3110   1.4268   1.7471   5.6028   6.2758  11.9593  12.0026
    13.5282  16.2880  16.6567  18.4416

          k = 0.8333 0.0000 0.8333 (  1614 PWs)   bands (ev):

    -3.2408  -2.6056   0.8601   1.8533   5.8037   7.2307  11.6561  11.6699
    12.9604  15.5879  16.3133  19.2142

          k = 0.0000-1.0000 0.0000 (  1604 PWs)   bands (ev):

    -3.2284  -2.7256   1.6767   1.6767   5.4280   5.8731  12.2890  12.2890
    13.7589  16.4464  17.4588  17.8310

          k =-0.1667 0.3333 0.0000 (  1603 PWs)   bands (ev):

    -6.2942   1.7110   2.8486   3.5880   6.7858   7.4065   8.4560   8.9613
    12.0850  14.0108  14.1771  16.7053

          k =-0.2500 0.4167-0.0833 (  1607 PWs)   bands (ev):

    -5.8845   0.6020   2.3596   3.3483   6.8896   7.6300   8.8643   9.3700
    12.2383  14.1503  14.7849  16.8569

          k =-0.3333 0.5000-0.1667 (  1604 PWs)   bands (ev):

    -5.3467  -0.5731   2.0948   3.0623   6.7995   7.9247   8.9873   9.9460
    12.7953  14.3197  15.2776  16.9996

          k = 0.5833-0.4167 0.7500 (  1612 PWs)   bands (ev):

    -4.7708  -1.5657   1.9651   2.8454   6.7006   8.0102   8.9936  10.7165
    13.2942  14.5508  15.5578  16.7083

          k = 0.5000-0.3333 0.6667 (  1602 PWs)   bands (ev):

    -4.4619  -2.0177   1.9277   2.7646   6.6633   8.0099   8.9870  11.1559
    13.3259  14.9225  15.4598  16.4498

          k =-0.1667 0.5000 0.0000 (  1617 PWs)   bands (ev):

    -5.7396   0.6084   2.2170   2.8013   6.3917   7.7280   9.3011   9.6709
    12.0917  14.9294  15.2501  17.5543

          k =-0.2500 0.5833-0.0833 (  1611 PWs)   bands (ev):

    -5.2422  -0.3347   1.7295   2.5525   6.6813   7.9263   9.2006  10.0835
    12.7205  15.0423  15.7429  17.7254

          k = 0.6667-0.3333 0.8333 (  1617 PWs)   bands (ev):

    -4.6627  -1.2826   1.3961   2.3670   6.7966   8.3334   9.3515  10.2600
    13.0878  14.9599  16.1346  17.3469

          k = 0.5833-0.2500 0.7500 (  1607 PWs)   bands (ev):

    -4.2102  -1.9162   1.1701   2.3486   6.8770   8.3700   9.7705  10.6106
    12.6014  14.9515  16.1125  17.0761

          k = 0.5000-0.1667 0.6667 (  1605 PWs)   bands (ev):

    -4.3329  -1.7481   1.0691   2.4986   7.0139   8.3150   9.6988  10.7169
    12.5236  14.1816  16.2551  17.3377

          k = 0.4167-0.0833 0.5833 (  1610 PWs)   bands (ev):

    -4.8742  -0.9596   1.1529   2.7746   7.1798   8.2098   9.3689  10.0775
    12.7580  13.9639  16.0579  17.6163

          k = 0.3333 0.0000 0.5000 (  1606 PWs)   bands (ev):

    -5.4344  -0.0754   1.5445   3.1021   7.2329   7.8442   9.2213   9.4777
    12.3851  14.3569  15.4546  17.5169

          k =-0.1667 0.6667-0.0000 (  1626 PWs)   bands (ev):

    -4.9838  -0.5509   1.7440   2.1135   6.0715   7.2387  10.0920  10.8726
    12.8135  15.7204  16.1902  18.5486

          k = 0.7500-0.2500 0.9167 (  1621 PWs)   bands (ev):

    -4.4244  -1.3056   1.2312   1.9250   6.4086   7.6296   9.9039  11.1742
    13.1648  15.3887  16.4845  18.3456

          k = 0.6667-0.1667 0.8333 (  1616 PWs)   bands (ev):

    -3.8912  -1.9415   0.7672   1.9298   6.5760   8.6060   9.7455  11.0882
    12.6249  15.1846  16.2829  18.3876

          k = 0.5833-0.0833 0.7500 (  1614 PWs)   bands (ev):

    -3.8294  -2.0009   0.5089   2.1060   6.7787   9.2161   9.8581  10.8524
    11.9036  14.3101  16.5731  18.5845

          k = 0.5000 0.0000 0.6667 (  1621 PWs)   bands (ev):

    -4.3133  -1.4740   0.5912   2.4107   7.0406   8.9630   9.5061  10.6662
    12.2928  13.6151  16.5949  18.4352

          k = 0.8333-0.1667 1.0000 (  1617 PWs)   bands (ev):

    -4.0565  -1.7385   1.4771   1.6513   5.9339   6.6444  11.0954  11.8191
    13.3586  15.9109  16.7079  18.6191

          k = 0.7500-0.0833 0.9167 (  1620 PWs)   bands (ev):

    -3.5032  -2.3009   0.9445   1.6134   6.2615   7.3272  10.8728  11.7015
    13.0500  15.6526  16.3142  18.7992

          k = 0.6667 0.0000 0.8333 (  1620 PWs)   bands (ev):

    -3.3795  -2.3862   0.5065   1.7914   6.4827   8.5612  10.4352  11.0826
    12.4203  14.9065  16.4508  19.2749

          k =-0.1667-1.0000 0.0000 (  1622 PWs)   bands (ev):

    -3.1964  -2.6904   1.4344   1.4478   5.9360   6.3771  11.7475  12.0619
    13.4387  16.0767  16.5400  18.2837

          k = 0.6667-0.3333 1.0000 (  1610 PWs)   bands (ev):

    -4.7186  -0.9597   1.1115   2.2369   7.2552   8.0027   8.9518  10.7886
    12.8686  14.5962  16.3684  18.2287

          k = 0.5833-0.2500 0.9167 (  1611 PWs)   bands (ev):

    -4.1471  -1.6523   0.7929   1.9461   7.5250   8.2855   9.1755  11.0727
    12.4344  14.5905  16.5559  18.2029

          k = 0.5000-0.1667 0.8333 (  1610 PWs)   bands (ev):

    -3.8252  -2.0304   0.7043   1.8325   7.5638   8.2809   9.8078  10.8646
    12.0090  14.9980  16.3361  18.0661

          k = 0.6667-0.1667 1.0000 (  1618 PWs)   bands (ev):

    -3.8647  -1.8680   0.9291   1.4908   7.1547   7.7532   9.6375  11.5207
    12.8452  15.1529  16.5614  18.8736

          k = 0.5833-0.0833 0.9167 (  1615 PWs)   bands (ev):

    -3.4131  -2.3019   0.6548   1.3545   7.5100   8.6078   9.4344  10.7251
    12.6918  15.3327  16.2706  18.9004

          k = 0.5000 0.0000 0.8333 (  1612 PWs)   bands (ev):

    -3.6092  -2.1071   0.5424   1.5551   7.7083   8.8375   9.2140  10.6527
    12.4104  14.8582  16.5013  19.0155

          k =-0.3333-1.0000 0.0000 (  1618 PWs)   bands (ev):

    -3.1288  -2.6147   1.0296   1.0592   7.1395   7.5723  10.4210  11.0663
    13.0750  15.7629  16.1116  18.7325

          k =-0.5000-1.0000 0.0000 (  1628 PWs)   bands (ev):

    -3.0928  -2.5740   0.8514   0.8871   8.3420   8.6235   9.1476   9.9999
    13.0002  15.6791  16.0205  18.8831

     the Fermi energy is     2.7650 ev

     Writing output data file Si.save

     init_run     :      0.22s CPU      0.22s WALL (       1 calls)
     electrons    :     36.30s CPU     37.00s WALL (       1 calls)

     Called by init_run:
     wfcinit      :      0.00s CPU      0.00s WALL (       1 calls)
     potinit      :      0.05s CPU      0.05s WALL (       1 calls)

     Called by electrons:
     c_bands      :     36.17s CPU     36.87s WALL (       1 calls)
     v_of_rho     :      0.04s CPU      0.04s WALL (       1 calls)

     Called by c_bands:
     init_us_2    :      0.09s CPU      0.09s WALL (      72 calls)
     cegterg      :     29.60s CPU     30.16s WALL (      99 calls)

     Called by *egterg:
     h_psi        :     29.54s CPU     30.12s WALL (    1630 calls)
     g_psi        :      0.07s CPU      0.08s WALL (    1459 calls)
     cdiaghg      :      0.79s CPU      0.80s WALL (    1531 calls)

     Called by h_psi:
     add_vuspsi   :      0.87s CPU      0.88s WALL (    1630 calls)

     General routines
     calbec       :      0.96s CPU      0.98s WALL (    1630 calls)
     fft          :      0.02s CPU      0.02s WALL (      11 calls)
     fftw         :     26.06s CPU     26.60s WALL (   25502 calls)
     davcio       :      0.00s CPU      0.01s WALL (      72 calls)

     Parallel routines
     fft_scatter  :      0.68s CPU      0.68s WALL (   25513 calls)

     PWSCF        :    38.00s CPU        38.75s WALL


   This run was terminated on:  14:38:35  13Feb2023            

=------------------------------------------------------------------------------=
   JOB DONE.
=------------------------------------------------------------------------------=
