
     Program PWSCF v.5.1 starts on 13Feb2023 at 14:37: 6 

     This program is part of the open-source Quantum ESPRESSO suite
     for quantum simulation of materials; please cite
         "P. Giannozzi et al., J. Phys.:Condens. Matter 21 395502 (2009);
          URL http://www.quantum-espresso.org", 
     in publications or presentations arising from this work. More details at
     http://www.quantum-espresso.org/quote

     Parallel version (MPI), running on     1 processors
     Waiting for input...
     Reading input from standard input
Warning: card    SI   -0.50    0.00    0.50 ignored
Warning: card    SI   -0.25    0.25    0.75 ignored

     Current dimensions of program PWSCF are:
     Max number of different atomic species (ntypx) = 10
     Max number of k-points (npk) =  40000
     Max angular momentum in pseudopotentials (lmaxx) =  3
               file Si.pbe-mt_fhi.UPF: wavefunction(s)  4f renormalized
               file B.pbe-mt_fhi.UPF: wavefunction(s)  4f renormalized

     Subspace diagonalization in iterative solution of the eigenvalue problem:
     a serial algorithm will be used


     G-vector sticks info
     --------------------
     sticks:   dense  smooth     PW     G-vecs:    dense   smooth      PW
     Sum         733     733    211                12939    12939    2109



     bravais-lattice index     =            2
     lattice parameter (alat)  =      10.2623  a.u.
     unit-cell volume          =     270.1967 (a.u.)^3
     number of atoms/cell      =            2
     number of atomic types    =            2
     number of electrons       =         7.00
     number of Kohn-Sham states=           12
     kinetic-energy cutoff     =      50.0000  Ry
     charge density cutoff     =     200.0000  Ry
     convergence threshold     =      1.6E-09
     mixing beta               =       0.3000
     number of iterations used =            8  plain     mixing
     Exchange-correlation      = PBE ( 1  4  3  4 0)

     celldm(1)=  10.262347  celldm(2)=   0.000000  celldm(3)=   0.000000
     celldm(4)=   0.000000  celldm(5)=   0.000000  celldm(6)=   0.000000

     crystal axes: (cart. coord. in units of alat)
               a(1) = (  -0.500000   0.000000   0.500000 )  
               a(2) = (   0.000000   0.500000   0.500000 )  
               a(3) = (  -0.500000   0.500000   0.000000 )  

     reciprocal axes: (cart. coord. in units 2 pi/alat)
               b(1) = ( -1.000000 -1.000000  1.000000 )  
               b(2) = (  1.000000  1.000000  1.000000 )  
               b(3) = ( -1.000000  1.000000 -1.000000 )  


     PseudoPot. # 1 for Si read from file:
     /home/acedemo/psudo/Si.pbe-mt_fhi.UPF
     MD5 check sum: 259057c2adf9952f9ced37ae3d9e311d
     Pseudo is Norm-conserving, Zval =  4.0
     Generated using FHI98PP, converted with fhi2upf.x v.5.0.2
     Using radial grid of  495 points,  3 beta functions with: 
                l(1) =   0
                l(2) =   1
                l(3) =   3

     PseudoPot. # 2 for  B read from file:
     /home/acedemo/psudo/B.pbe-mt_fhi.UPF
     MD5 check sum: 3ba04917d1d3a8de85490f79a9c37fe5
     Pseudo is Norm-conserving + core correction, Zval =  3.0
     Generated using FHI98PP, converted with fhi2upf.x v.5.0.2
     Using radial grid of  453 points,  3 beta functions with: 
                l(1) =   0
                l(2) =   1
                l(3) =   3

     atomic species   valence    mass     pseudopotential
        Si             4.00    28.08550     Si( 1.00)
        B              3.00    10.81100      B( 1.00)

     24 Sym. Ops. (no inversion) found



   Cartesian axes

     site n.     atom                  positions (alat units)
         1           B   tau(   1) = (   0.0000000   0.0000000   0.0000000  )
         2           Si  tau(   2) = (   0.2500000   0.2500000   0.2500000  )

     number of k points=    10  Marzari-Vanderbilt smearing, width (Ry)=  0.0500
                       cart. coord. in units 2pi/alat
        k(    1) = (   0.0000000   0.0000000   0.0000000), wk =   0.0160000
        k(    2) = (  -0.2000000   0.2000000  -0.2000000), wk =   0.1280000
        k(    3) = (  -0.4000000   0.4000000  -0.4000000), wk =   0.1280000
        k(    4) = (   0.0000000   0.4000000   0.0000000), wk =   0.0960000
        k(    5) = (  -0.2000000   0.6000000  -0.2000000), wk =   0.3840000
        k(    6) = (   0.6000000  -0.2000000   0.6000000), wk =   0.3840000
        k(    7) = (   0.4000000   0.0000000   0.4000000), wk =   0.1920000
        k(    8) = (   0.0000000   0.8000000   0.0000000), wk =   0.0960000
        k(    9) = (   0.8000000   0.0000000   0.8000000), wk =   0.1920000
        k(   10) = (   0.6000000  -0.2000000   1.0000000), wk =   0.3840000

     Dense  grid:    12939 G-vectors     FFT dimensions: (  36,  36,  36)

     Largest allocated arrays     est. size (Mb)     dimensions
        Kohn-Sham Wavefunctions         0.30 Mb     (    1639,   12)
        NL pseudopotentials             0.55 Mb     (    1639,   22)
        Each V/rho on FFT grid          0.71 Mb     (   46656)
        Each G-vector array             0.10 Mb     (   12939)
        G-vector shells                 0.00 Mb     (     180)
     Largest temporary arrays     est. size (Mb)     dimensions
        Auxiliary wavefunctions         1.20 Mb     (    1639,   48)
        Each subspace H/S matrix        0.04 Mb     (      48,   48)
        Each <psi_i|beta_j> matrix      0.00 Mb     (      22,   12)
        Arrays for rho mixing           5.70 Mb     (   46656,    8)

     Check: negative/imaginary core charge=   -0.000048    0.000000

     Initial potential from superposition of free atoms

     starting charge    6.99902, renormalised to    7.00000
     Starting wfc are   32 randomized atomic wfcs

     total cpu time spent up to now is        1.0 secs

     per-process dynamical memory:    17.4 Mb

     Self-consistent Calculation

     iteration #  1     ecut=    50.00 Ry     beta=0.30
     Davidson diagonalization with overlap
     ethr =  1.00E-02,  avg # of iterations =  3.7

     Threshold (ethr) on eigenvalues was too large:
     Diagonalizing with lowered threshold

     Davidson diagonalization with overlap
     ethr =  8.53E-04,  avg # of iterations =  1.2

     total cpu time spent up to now is        2.6 secs

     total energy              =     -14.47829543 Ry
     Harris-Foulkes estimate   =     -14.49535910 Ry
     estimated scf accuracy    <       0.05988389 Ry

     iteration #  2     ecut=    50.00 Ry     beta=0.30
     Davidson diagonalization with overlap
     ethr =  8.55E-04,  avg # of iterations =  1.3

     total cpu time spent up to now is        3.3 secs

     total energy              =     -14.48145466 Ry
     Harris-Foulkes estimate   =     -14.48283500 Ry
     estimated scf accuracy    <       0.01011290 Ry

     iteration #  3     ecut=    50.00 Ry     beta=0.30
     Davidson diagonalization with overlap
     ethr =  1.44E-04,  avg # of iterations =  1.0

     total cpu time spent up to now is        4.1 secs

     total energy              =     -14.48227724 Ry
     Harris-Foulkes estimate   =     -14.48216995 Ry
     estimated scf accuracy    <       0.00217194 Ry

     iteration #  4     ecut=    50.00 Ry     beta=0.30
     Davidson diagonalization with overlap
     ethr =  3.10E-05,  avg # of iterations =  1.3

     total cpu time spent up to now is        4.9 secs

     total energy              =     -14.48232124 Ry
     Harris-Foulkes estimate   =     -14.48232034 Ry
     estimated scf accuracy    <       0.00000635 Ry

     iteration #  5     ecut=    50.00 Ry     beta=0.30
     Davidson diagonalization with overlap
     ethr =  9.07E-08,  avg # of iterations =  2.8

     total cpu time spent up to now is        5.7 secs

     total energy              =     -14.48232410 Ry
     Harris-Foulkes estimate   =     -14.48232401 Ry
     estimated scf accuracy    <       0.00000151 Ry

     iteration #  6     ecut=    50.00 Ry     beta=0.30
     Davidson diagonalization with overlap
     ethr =  2.16E-08,  avg # of iterations =  1.0

     total cpu time spent up to now is        6.4 secs

     total energy              =     -14.48232441 Ry
     Harris-Foulkes estimate   =     -14.48232430 Ry
     estimated scf accuracy    <       0.00000004 Ry

     iteration #  7     ecut=    50.00 Ry     beta=0.30
     Davidson diagonalization with overlap
     ethr =  5.85E-10,  avg # of iterations =  2.0

     total cpu time spent up to now is        7.1 secs

     total energy              =     -14.48232443 Ry
     Harris-Foulkes estimate   =     -14.48232443 Ry
     estimated scf accuracy    <       0.00000001 Ry

     iteration #  8     ecut=    50.00 Ry     beta=0.30
     Davidson diagonalization with overlap
     ethr =  1.58E-10,  avg # of iterations =  1.2

     total cpu time spent up to now is        7.8 secs

     End of self-consistent calculation

          k = 0.0000 0.0000 0.0000 (  1639 PWs)   bands (ev):

    -6.8602   4.1959   4.1959   4.1959   6.2974   7.1667   7.1667   7.1667
    12.3728  14.0839  14.0839  16.2206

          k =-0.2000 0.2000-0.2000 (  1606 PWs)   bands (ev):

    -6.3729   1.5105   3.7080   3.7080   6.2686   7.8435   7.8435   9.0354
    13.1402  13.1402  13.6259  15.6174

          k =-0.4000 0.4000-0.4000 (  1616 PWs)   bands (ev):

    -5.0990  -1.4735   3.1938   3.1938   5.7705   8.1970   8.1970  11.1240
    13.9526  14.3910  14.3910  16.5313

          k = 0.0000 0.4000 0.0000 (  1607 PWs)   bands (ev):

    -6.2057   1.7598   2.9442   2.9442   6.1363   7.7872   9.0484   9.0484
    11.6191  14.4497  14.8141  17.5000

          k =-0.2000 0.6000-0.2000 (  1619 PWs)   bands (ev):

    -5.1384  -0.6285   1.9315   2.4640   6.4191   8.1437   9.5172   9.7567
    12.9984  15.3827  15.5816  17.5572

          k = 0.6000-0.2000 0.6000 (  1596 PWs)   bands (ev):

    -4.3258  -1.8836   1.2040   2.6972   6.6144   8.7364   9.3046  10.9134
    12.8241  13.9704  16.0609  17.2350

          k = 0.4000 0.0000 0.4000 (  1610 PWs)   bands (ev):

    -5.5931   0.1248   1.6370   3.4517   7.0073   8.3517   8.6630   9.4810
    12.2269  14.0543  15.1960  17.3090

          k = 0.0000 0.8000 0.0000 (  1624 PWs)   bands (ev):

    -4.3287  -1.4484   1.8258   1.8258   5.4089   6.3021  11.7048  11.7048
    13.1782  16.5415  16.7764  18.4506

          k = 0.8000 0.0000 0.8000 (  1622 PWs)   bands (ev):

    -3.2920  -2.5282   0.6696   1.9291   5.8920   7.7398  11.4176  11.4654
    12.6576  15.1876  16.3957  19.4508

          k = 0.6000-0.2000 1.0000 (  1616 PWs)   bands (ev):

    -3.9313  -1.7933   0.7438   1.6339   7.6795   8.2501   8.9983  11.2934
    12.5306  14.7987  16.6001  18.8369

     the Fermi energy is     2.8130 ev

!    total energy              =     -14.48232443 Ry
     Harris-Foulkes estimate   =     -14.48232443 Ry
     estimated scf accuracy    <          1.5E-10 Ry

     The total energy is the sum of the following terms:

     one-electron contribution =       2.71091782 Ry
     hartree contribution      =       1.11683058 Ry
     xc contribution           =      -5.27051881 Ry
     ewald contribution        =     -13.04458127 Ry
     smearing contrib. (-TS)   =       0.00502725 Ry

     convergence has been achieved in   8 iterations

     Forces acting on atoms (Ry/au):

     atom    1 type  2   force =     0.00000000    0.00000000   -0.00000000
     atom    2 type  1   force =    -0.00000000   -0.00000000   -0.00000000

     Total force =     0.000000     Total SCF correction =     0.000000


     entering subroutine stress ...

          total   stress  (Ry/bohr**3)                   (kbar)     P= -228.40
  -0.00155264   0.00000000   0.00000000       -228.40      0.00      0.00
   0.00000000  -0.00155264   0.00000000          0.00   -228.40      0.00
   0.00000000   0.00000000  -0.00155264          0.00      0.00   -228.40


     Writing output data file Si.save

     init_run     :      0.92s CPU      0.96s WALL (       1 calls)
     electrons    :      6.66s CPU      6.81s WALL (       1 calls)
     forces       :      0.10s CPU      0.10s WALL (       1 calls)
     stress       :      0.51s CPU      0.53s WALL (       1 calls)

     Called by init_run:
     wfcinit      :      0.72s CPU      0.73s WALL (       1 calls)
     potinit      :      0.04s CPU      0.04s WALL (       1 calls)

     Called by electrons:
     c_bands      :      5.20s CPU      5.32s WALL (       9 calls)
     sum_band     :      1.17s CPU      1.19s WALL (       9 calls)
     v_of_rho     :      0.28s CPU      0.29s WALL (       9 calls)
     mix_rho      :      0.02s CPU      0.02s WALL (       9 calls)

     Called by c_bands:
     init_us_2    :      0.25s CPU      0.25s WALL (     210 calls)
     cegterg      :      5.01s CPU      5.13s WALL (      90 calls)

     Called by *egterg:
     h_psi        :      5.10s CPU      5.21s WALL (     255 calls)
     g_psi        :      0.01s CPU      0.01s WALL (     155 calls)
     cdiaghg      :      0.06s CPU      0.07s WALL (     235 calls)

     Called by h_psi:
     add_vuspsi   :      0.15s CPU      0.15s WALL (     255 calls)

     General routines
     calbec       :      0.18s CPU      0.19s WALL (     275 calls)
     fft          :      0.14s CPU      0.15s WALL (     125 calls)
     fftw         :      5.43s CPU      5.56s WALL (    6382 calls)
     davcio       :      0.00s CPU      0.00s WALL (      10 calls)

     Parallel routines
     fft_scatter  :      0.15s CPU      0.16s WALL (    6507 calls)

     PWSCF        :     8.28s CPU         8.53s WALL


   This run was terminated on:  14:37:15  13Feb2023            

=------------------------------------------------------------------------------=
   JOB DONE.
=------------------------------------------------------------------------------=
