
     Program PWSCF v.5.1 starts on 13Feb2023 at 17: 8:45 

     This program is part of the open-source Quantum ESPRESSO suite
     for quantum simulation of materials; please cite
         "P. Giannozzi et al., J. Phys.:Condens. Matter 21 395502 (2009);
          URL http://www.quantum-espresso.org", 
     in publications or presentations arising from this work. More details at
     http://www.quantum-espresso.org/quote

     Parallel version (MPI), running on     1 processors
     Waiting for input...
     Reading input from standard input

     Current dimensions of program PWSCF are:
     Max number of different atomic species (ntypx) = 10
     Max number of k-points (npk) =  40000
     Max angular momentum in pseudopotentials (lmaxx) =  3

     Atomic positions and unit cell read from directory:
     ./out/Si.save/

               file Si.pbe-mt_fhi.UPF: wavefunction(s)  4f renormalized

     Subspace diagonalization in iterative solution of the eigenvalue problem:
     a serial algorithm will be used


     G-vector sticks info
     --------------------
     sticks:   dense  smooth     PW     G-vecs:    dense   smooth      PW
     Sum         733     733    211                12939    12939    2109



     bravais-lattice index     =            2
     lattice parameter (alat)  =      10.2623  a.u.
     unit-cell volume          =     270.1967 (a.u.)^3
     number of atoms/cell      =            2
     number of atomic types    =            1
     number of electrons       =         8.30
     number of Kohn-Sham states=           10
     kinetic-energy cutoff     =      50.0000  Ry
     charge density cutoff     =     200.0000  Ry
     Exchange-correlation      = PBE ( 1  4  3  4 0)

     celldm(1)=  10.262347  celldm(2)=   0.000000  celldm(3)=   0.000000
     celldm(4)=   0.000000  celldm(5)=   0.000000  celldm(6)=   0.000000

     crystal axes: (cart. coord. in units of alat)
               a(1) = (  -0.500000   0.000000   0.500000 )  
               a(2) = (   0.000000   0.500000   0.500000 )  
               a(3) = (  -0.500000   0.500000   0.000000 )  

     reciprocal axes: (cart. coord. in units 2 pi/alat)
               b(1) = ( -1.000000 -1.000000  1.000000 )  
               b(2) = (  1.000000  1.000000  1.000000 )  
               b(3) = ( -1.000000  1.000000 -1.000000 )  


     PseudoPot. # 1 for Si read from file:
     /home/acedemo/psudo/Si.pbe-mt_fhi.UPF
     MD5 check sum: 259057c2adf9952f9ced37ae3d9e311d
     Pseudo is Norm-conserving, Zval =  4.0
     Generated using FHI98PP, converted with fhi2upf.x v.5.0.2
     Using radial grid of  495 points,  3 beta functions with: 
                l(1) =   0
                l(2) =   1
                l(3) =   3

     atomic species   valence    mass     pseudopotential
        Si             4.00    28.08550     Si( 1.00)

     48 Sym. Ops., with inversion, found (24 have fractional translation)



   Cartesian axes

     site n.     atom                  positions (alat units)
         1           Si  tau(   1) = (   0.0000000   0.0000000   0.0000000  )
         2           Si  tau(   2) = (   0.2500000   0.2500000   0.2500000  )

     number of k points=    51  Marzari-Vanderbilt smearing, width (Ry)=  0.0500
                       cart. coord. in units 2pi/alat
        k(    1) = (   0.5000000   0.5000000   0.5000000), wk =   0.0000000
        k(    2) = (   0.4500000   0.4500000   0.4500000), wk =   0.0014779
        k(    3) = (   0.4000000   0.4000000   0.4000000), wk =   0.0029558
        k(    4) = (   0.3500000   0.3500000   0.3500000), wk =   0.0044337
        k(    5) = (   0.3000000   0.3000000   0.3000000), wk =   0.0059116
        k(    6) = (   0.2500000   0.2500000   0.2500000), wk =   0.0073895
        k(    7) = (   0.2000000   0.2000000   0.2000000), wk =   0.0088674
        k(    8) = (   0.1500000   0.1500000   0.1500000), wk =   0.0103453
        k(    9) = (   0.1000000   0.1000000   0.1000000), wk =   0.0118232
        k(   10) = (   0.0500000   0.0500000   0.0500000), wk =   0.0133011
        k(   11) = (   0.0000000   0.0000000   0.0000000), wk =   0.0147790
        k(   12) = (   0.0000000   0.1000000   0.0000000), wk =   0.0168691
        k(   13) = (   0.0000000   0.2000000   0.0000000), wk =   0.0189591
        k(   14) = (   0.0000000   0.3000000   0.0000000), wk =   0.0210492
        k(   15) = (   0.0000000   0.4000000   0.0000000), wk =   0.0231392
        k(   16) = (   0.0000000   0.5000000   0.0000000), wk =   0.0252293
        k(   17) = (   0.0000000   0.6000000   0.0000000), wk =   0.0273194
        k(   18) = (   0.0000000   0.7000000   0.0000000), wk =   0.0294094
        k(   19) = (   0.0000000   0.8000000   0.0000000), wk =   0.0314995
        k(   20) = (   0.0000000   0.9000000   0.0000000), wk =   0.0335896
        k(   21) = (   0.0000000   1.0000000   0.0000000), wk =   0.0356796
        k(   22) = (   0.0000000   0.9750000   0.0750000), wk =   0.0370621
        k(   23) = (   0.0000000   0.9500000   0.1500000), wk =   0.0384445
        k(   24) = (  -0.0000000   0.9250000   0.2250000), wk =   0.0398270
        k(   25) = (  -0.0000000   0.9000000   0.3000000), wk =   0.0412094
        k(   26) = (   0.0000000   0.8750000   0.3750000), wk =   0.0425919
        k(   27) = (   0.0000000   0.8500000   0.4500000), wk =   0.0439743
        k(   28) = (   0.0000000   0.8250000   0.5250000), wk =   0.0453568
        k(   29) = (  -0.0000000   0.8000000   0.6000000), wk =   0.0467392
        k(   30) = (  -0.0000000   0.7750000   0.6750000), wk =   0.0481217
        k(   31) = (   0.0000000   0.7500000   0.7500000), wk =   0.0495041
        k(   32) = (   0.0000000   0.7250000   0.7750000), wk =   0.0500266
        k(   33) = (   0.0000000   0.7000000   0.8000000), wk =   0.0505491
        k(   34) = (   0.0000000   0.6750000   0.8250000), wk =   0.0510717
        k(   35) = (   0.0000000   0.6500000   0.8500000), wk =   0.0515942
        k(   36) = (   0.0000000   0.6250000   0.8750000), wk =   0.0521167
        k(   37) = (   0.0000000   0.6000000   0.9000000), wk =   0.0526392
        k(   38) = (   0.0000000   0.5750000   0.9250000), wk =   0.0531617
        k(   39) = (   0.0000000   0.5500000   0.9500000), wk =   0.0536842
        k(   40) = (   0.0000000   0.5250000   0.9750000), wk =   0.0542067
        k(   41) = (   0.0000000   0.5000000   1.0000000), wk =   0.0547293
        k(   42) = (   0.0000000   0.4500000   0.9000000), wk =   0.0574942
        k(   43) = (  -0.0000000   0.4000000   0.8000000), wk =   0.0602591
        k(   44) = (  -0.0000000   0.3500000   0.7000000), wk =   0.0630239
        k(   45) = (  -0.0000000   0.3000000   0.6000000), wk =   0.0657888
        k(   46) = (   0.0000000   0.2500000   0.5000000), wk =   0.0685537
        k(   47) = (   0.0000000   0.2000000   0.4000000), wk =   0.0713186
        k(   48) = (   0.0000000   0.1500000   0.3000000), wk =   0.0740835
        k(   49) = (  -0.0000000   0.1000000   0.2000000), wk =   0.0768484
        k(   50) = (  -0.0000000   0.0500000   0.1000000), wk =   0.0796133
        k(   51) = (   0.0000000   0.0000000   0.0000000), wk =   0.0823782

     Dense  grid:    12939 G-vectors     FFT dimensions: (  36,  36,  36)

     Largest allocated arrays     est. size (Mb)     dimensions
        Kohn-Sham Wavefunctions         0.25 Mb     (    1639,   10)
        NL pseudopotentials             0.55 Mb     (    1639,   22)
        Each V/rho on FFT grid          0.71 Mb     (   46656)
        Each G-vector array             0.10 Mb     (   12939)
        G-vector shells                 0.00 Mb     (     180)
     Largest temporary arrays     est. size (Mb)     dimensions
        Auxiliary wavefunctions         1.00 Mb     (    1639,   40)
        Each subspace H/S matrix        0.02 Mb     (      40,   40)
        Each <psi_i|beta_j> matrix      0.00 Mb     (      22,   10)

     The potential is recalculated from file :
     ./out/Si.save/charge-density.dat

     Starting wfc are   32 randomized atomic wfcs

     Band Structure Calculation
     Davidson diagonalization with overlap

     ethr =  1.93E-11,  avg # of iterations = 17.1

     total cpu time spent up to now is       29.7 secs

     End of band structure calculation

          k = 0.5000 0.5000 0.5000 (  1622 PWs)   bands (ev):

    -3.5102  -0.8752   4.9363   4.9363   7.6004   9.4416   9.4416  13.6855
    16.6791  16.6791

          k = 0.4500 0.4500 0.4500 (  1610 PWs)   bands (ev):

    -3.6467  -0.6767   4.9543   4.9543   7.6211   9.4626   9.4626  13.7188
    15.9789  15.9789

          k = 0.4000 0.4000 0.4000 (  1616 PWs)   bands (ev):

    -3.9683  -0.1697   5.0080   5.0080   7.6829   9.5197   9.5197  13.8067
    15.0977  15.0977

          k = 0.3500 0.3500 0.3500 (  1610 PWs)   bands (ev):

    -4.3492   0.5181   5.0972   5.0972   7.7847   9.5928   9.5928  13.8812
    14.3204  14.3204

          k = 0.3000 0.3000 0.3000 (  1615 PWs)   bands (ev):

    -4.7221   1.3159   5.2207   5.2207   7.9242   9.6440   9.6440  13.6458
    13.7032  13.7032

          k = 0.2500 0.2500 0.2500 (  1618 PWs)   bands (ev):

    -5.0575   2.1881   5.3758   5.3758   8.0964   9.6201   9.6201  12.9379
    13.3031  13.3031

          k = 0.2000 0.2000 0.2000 (  1606 PWs)   bands (ev):

    -5.3415   3.1105   5.5567   5.5567   8.2921   9.4806   9.4806  12.0806
    13.1592  13.1592

          k = 0.1500 0.1500 0.1500 (  1600 PWs)   bands (ev):

    -5.5670   4.0570   5.7519   5.7519   8.4933   9.2414   9.2414  11.1920
    13.2493  13.2493

          k = 0.1000 0.1000 0.1000 (  1606 PWs)   bands (ev):

    -5.7302   4.9829   5.9398   5.9398   8.6647   8.9727   8.9727  10.3301
    13.4867  13.4867

          k = 0.0500 0.0500 0.0500 (  1630 PWs)   bands (ev):

    -5.8288   5.7774   6.0843   6.0843   8.7315   8.7603   8.7603   9.6383
    13.7429  13.7429

          k = 0.0000 0.0000 0.0000 (  1639 PWs)   bands (ev):

    -5.8617   6.1402   6.1402   6.1402   8.6787   8.6787   8.6787   9.3908
    13.8314  13.8587

          k = 0.0000 0.1000 0.0000 (  1627 PWs)   bands (ev):

    -5.8178   5.8565   5.9620   5.9620   8.5676   8.9104   8.9104   9.6641
    13.5170  13.9071

          k = 0.0000 0.2000 0.0000 (  1599 PWs)   bands (ev):

    -5.6860   5.1941   5.5570   5.5570   8.2818   9.4746   9.4746  10.2249
    12.8391  14.0523

          k = 0.0000 0.3000 0.0000 (  1607 PWs)   bands (ev):

    -5.4672   4.3798   5.0902   5.0902   7.9130  10.2034  10.2034  10.4618
    12.5455  14.2942

          k = 0.0000 0.4000 0.0000 (  1607 PWs)   bands (ev):

    -5.1627   3.5084   4.6389   4.6389   7.5357   9.9451  11.0158  11.0158
    13.1186  14.6326

          k = 0.0000 0.5000 0.0000 (  1612 PWs)   bands (ev):

    -4.7742   2.6150   4.2349   4.2349   7.1959   9.1856  11.8766  11.8766
    14.0662  15.0671

          k = 0.0000 0.6000 0.0000 (  1620 PWs)   bands (ev):

    -4.3044   1.7161   3.8932   3.8932   6.9213   8.4627  12.7690  12.7690
    15.1077  15.5974

          k = 0.0000 0.7000 0.0000 (  1632 PWs)   bands (ev):

    -3.7566   0.8237   3.6220   3.6220   6.7291   7.8461  13.6848  13.6848
    16.1588  16.2228

          k = 0.0000 0.8000 0.0000 (  1624 PWs)   bands (ev):

    -3.1353  -0.0504   3.4257   3.4257   6.6314   7.3551  14.6185  14.6185
    16.9427  17.1781

          k = 0.0000 0.9000 0.0000 (  1608 PWs)   bands (ev):

    -2.4461  -0.8942   3.3070   3.3070   6.6376   6.9928  15.5492  15.5492
    17.7560  17.7579

          k = 0.0000 1.0000 0.0000 (  1604 PWs)   bands (ev):

    -1.6962  -1.6962   3.2673   3.2673   6.7556   6.7556  16.1971  16.1971
    17.0959  17.0959

          k = 0.0000 0.9750 0.0750 (  1618 PWs)   bands (ev):

    -1.8790  -1.4934   3.1913   3.1981   6.8542   6.9386  15.7903  16.0096
    16.7999  17.0330

          k = 0.0000 0.9500 0.1500 (  1622 PWs)   bands (ev):

    -2.0343  -1.2831   2.9892   3.0376   7.2077   7.3598  14.7616  15.5722
    16.3141  17.1768

          k =-0.0000 0.9250 0.2250 (  1622 PWs)   bands (ev):

    -2.1579  -1.0834   2.7230   2.8680   7.7489   7.9521  13.5898  14.9249
    15.9508  17.3300

          k =-0.0000 0.9000 0.3000 (  1623 PWs)   bands (ev):

    -2.2476  -0.9187   2.4467   2.7587   8.4188   8.6626  12.4143  14.1943
    15.6597  17.3013

          k = 0.0000 0.8750 0.3750 (  1614 PWs)   bands (ev):

    -2.3031  -0.8130   2.1947   2.7566   9.1779   9.4458  11.2915  13.4598
    15.3837  17.0418

          k = 0.0000 0.8500 0.4500 (  1612 PWs)   bands (ev):

    -2.3250  -0.7792   1.9870   2.8800   9.9258   9.9961  10.6035  12.7565
    15.1017  16.6289

          k = 0.0000 0.8250 0.5250 (  1611 PWs)   bands (ev):

    -2.3146  -0.8108   1.8360   3.1119   9.0881  10.8215  11.3792  12.1315
    14.8068  16.1244

          k =-0.0000 0.8000 0.6000 (  1614 PWs)   bands (ev):

    -2.2737  -0.8883   1.7494   3.3987   8.2283  11.1815  12.0488  12.3557
    14.5013  15.5748

          k =-0.0000 0.7750 0.6750 (  1621 PWs)   bands (ev):

    -2.2036  -0.9911   1.7317   3.6423   7.5690  10.7179  12.8469  13.3790
    14.2014  15.0187

          k = 0.0000 0.7500 0.7500 (  1624 PWs)   bands (ev):

    -2.1055  -1.1055   1.7849   3.6978   7.2549  10.1990  13.5797  14.0819
    14.2863  14.6166

          k = 0.0000 0.7250 0.7750 (  1616 PWs)   bands (ev):

    -2.0997  -1.1077   1.7896   3.6601   7.3102  10.2029  13.4263  14.0193
    14.2345  14.8848

          k = 0.0000 0.7000 0.8000 (  1621 PWs)   bands (ev):

    -2.0823  -1.1146   1.8037   3.5545   7.4687  10.2144  13.1496  13.6394
    14.5089  15.2672

          k = 0.0000 0.6750 0.8250 (  1620 PWs)   bands (ev):

    -2.0532  -1.1271   1.8271   3.3989   7.7134  10.2332  12.8514  13.2547
    14.8033  15.6525

          k = 0.0000 0.6500 0.8500 (  1616 PWs)   bands (ev):

    -2.0126  -1.1465   1.8598   3.2137   8.0248  10.2587  12.5506  12.8746
    15.0992  16.0253

          k = 0.0000 0.6250 0.8750 (  1616 PWs)   bands (ev):

    -1.9603  -1.1746   1.9015   3.0165   8.3863  10.2899  12.2537  12.5021
    15.3909  16.3706

          k = 0.0000 0.6000 0.9000 (  1613 PWs)   bands (ev):

    -1.8966  -1.2138   1.9523   2.8215   8.7849  10.3246  11.9652  12.1399
    15.6749  16.6641

          k = 0.0000 0.5750 0.9250 (  1615 PWs)   bands (ev):

    -1.8213  -1.2664   2.0117   2.6393   9.2097  10.3591  11.6908  11.7913
    15.9489  16.8663

          k = 0.0000 0.5500 0.9500 (  1615 PWs)   bands (ev):

    -1.7346  -1.3350   2.0797   2.4780   9.6478  10.3856  11.4394  11.4641
    16.2101  16.9326

          k = 0.0000 0.5250 0.9750 (  1615 PWs)   bands (ev):

    -1.6364  -1.4215   2.1558   2.3435  10.0688  10.3875  11.1849  11.2285
    16.4551  16.8559

          k = 0.0000 0.5000 1.0000 (  1628 PWs)   bands (ev):

    -1.5270  -1.5270   2.2397   2.2397  10.3367  10.3367  11.0871  11.0871
    16.6787  16.6787

          k = 0.0000 0.4500 0.9000 (  1616 PWs)   bands (ev):

    -2.0591  -1.0235   2.0396   2.6366   9.9872  10.0337  10.7528  12.2909
    15.6552  17.0075

          k =-0.0000 0.4000 0.8000 (  1616 PWs)   bands (ev):

    -2.6904  -0.4345   2.1129   3.1123   9.4728   9.8327  10.5189  13.8660
    14.5602  16.2750

          k =-0.0000 0.3500 0.7000 (  1618 PWs)   bands (ev):

    -3.3455   0.2396   2.3969   3.6395   9.0503   9.7628  10.3630  13.5076
    15.3660  15.4749

          k =-0.0000 0.3000 0.6000 (  1609 PWs)   bands (ev):

    -3.9683   0.9977   2.8374   4.1821   8.7356   9.8475  10.2547  12.5223
    14.5415  16.8025

          k = 0.0000 0.2500 0.5000 (  1610 PWs)   bands (ev):

    -4.5250   1.8373   3.3944   4.7003   8.5315   9.9788  10.2705  11.6111
    13.8657  16.3083

          k = 0.0000 0.2000 0.4000 (  1613 PWs)   bands (ev):

    -4.9963   2.7531   4.0333   5.1617   8.4361   9.8243  10.6703  10.7784
    13.3114  14.9138

          k = 0.0000 0.1500 0.3000 (  1607 PWs)   bands (ev):

    -5.3711   3.7321   4.7136   5.5497   8.4408   9.5400  10.0299  11.0688
    12.7614  14.0890

          k =-0.0000 0.1000 0.2000 (  1600 PWs)   bands (ev):

    -5.6425   4.7412   5.3758   5.8564   8.5223   9.2133   9.3810  10.6436
    12.8657  13.8614

          k =-0.0000 0.0500 0.1000 (  1623 PWs)   bands (ev):

    -5.8068   5.6731   5.9142   6.0643   8.6282   8.8840   8.8947   9.7707
    13.5084  13.8474

          k = 0.0000 0.0000 0.0000 (  1639 PWs)   bands (ev):

    -5.8617   6.1402   6.1402   6.1402   8.6787   8.6787   8.6787   9.3908
    13.8314  13.8587

     Writing output data file Si.save

     init_run     :      0.21s CPU      0.23s WALL (       1 calls)
     electrons    :     26.72s CPU     27.83s WALL (       1 calls)

     Called by init_run:
     wfcinit      :      0.00s CPU      0.00s WALL (       1 calls)
     potinit      :      0.05s CPU      0.05s WALL (       1 calls)

     Called by electrons:
     c_bands      :     26.72s CPU     27.83s WALL (       1 calls)
     v_of_rho     :      0.04s CPU      0.04s WALL (       1 calls)

     Called by c_bands:
     init_us_2    :      0.09s CPU      0.09s WALL (      51 calls)
     cegterg      :     20.52s CPU     21.35s WALL (      57 calls)

     Called by *egterg:
     h_psi        :     22.38s CPU     23.34s WALL (     982 calls)
     g_psi        :      0.05s CPU      0.06s WALL (     874 calls)
     cdiaghg      :      0.44s CPU      0.45s WALL (     925 calls)

     Called by h_psi:
     add_vuspsi   :      0.63s CPU      0.65s WALL (     982 calls)

     General routines
     calbec       :      0.70s CPU      0.72s WALL (     982 calls)
     fft          :      0.02s CPU      0.02s WALL (      10 calls)
     fftw         :     19.89s CPU     20.76s WALL (   14804 calls)
     davcio       :      0.00s CPU      0.00s WALL (      51 calls)

     Parallel routines
     fft_scatter  :      0.48s CPU      0.49s WALL (   14814 calls)

     PWSCF        :    28.45s CPU        29.79s WALL


   This run was terminated on:  17: 9:15  13Feb2023            

=------------------------------------------------------------------------------=
   JOB DONE.
=------------------------------------------------------------------------------=
