
     Program PWSCF v.5.1 starts on 13Feb2023 at 17: 8: 3 

     This program is part of the open-source Quantum ESPRESSO suite
     for quantum simulation of materials; please cite
         "P. Giannozzi et al., J. Phys.:Condens. Matter 21 395502 (2009);
          URL http://www.quantum-espresso.org", 
     in publications or presentations arising from this work. More details at
     http://www.quantum-espresso.org/quote

     Parallel version (MPI), running on     1 processors
     Waiting for input...
     Reading input from standard input

     Current dimensions of program PWSCF are:
     Max number of different atomic species (ntypx) = 10
     Max number of k-points (npk) =  40000
     Max angular momentum in pseudopotentials (lmaxx) =  3

     Atomic positions and unit cell read from directory:
     ./out/Si.save/

               file Si.pbe-mt_fhi.UPF: wavefunction(s)  4f renormalized

     Subspace diagonalization in iterative solution of the eigenvalue problem:
     a serial algorithm will be used


     G-vector sticks info
     --------------------
     sticks:   dense  smooth     PW     G-vecs:    dense   smooth      PW
     Sum         733     733    223                12939    12939    2229



     bravais-lattice index     =            2
     lattice parameter (alat)  =      10.2623  a.u.
     unit-cell volume          =     270.1967 (a.u.)^3
     number of atoms/cell      =            2
     number of atomic types    =            1
     number of electrons       =         8.30
     number of Kohn-Sham states=           10
     kinetic-energy cutoff     =      50.0000  Ry
     charge density cutoff     =     200.0000  Ry
     Exchange-correlation      = PBE ( 1  4  3  4 0)

     celldm(1)=  10.262347  celldm(2)=   0.000000  celldm(3)=   0.000000
     celldm(4)=   0.000000  celldm(5)=   0.000000  celldm(6)=   0.000000

     crystal axes: (cart. coord. in units of alat)
               a(1) = (  -0.500000   0.000000   0.500000 )  
               a(2) = (   0.000000   0.500000   0.500000 )  
               a(3) = (  -0.500000   0.500000   0.000000 )  

     reciprocal axes: (cart. coord. in units 2 pi/alat)
               b(1) = ( -1.000000 -1.000000  1.000000 )  
               b(2) = (  1.000000  1.000000  1.000000 )  
               b(3) = ( -1.000000  1.000000 -1.000000 )  


     PseudoPot. # 1 for Si read from file:
     /home/acedemo/psudo/Si.pbe-mt_fhi.UPF
     MD5 check sum: 259057c2adf9952f9ced37ae3d9e311d
     Pseudo is Norm-conserving, Zval =  4.0
     Generated using FHI98PP, converted with fhi2upf.x v.5.0.2
     Using radial grid of  495 points,  3 beta functions with: 
                l(1) =   0
                l(2) =   1
                l(3) =   3

     atomic species   valence    mass     pseudopotential
        Si             4.00    28.08550     Si( 1.00)

     48 Sym. Ops., with inversion, found (24 have fractional translation)



   Cartesian axes

     site n.     atom                  positions (alat units)
         1           Si  tau(   1) = (   0.0000000   0.0000000   0.0000000  )
         2           Si  tau(   2) = (   0.2500000   0.2500000   0.2500000  )

     number of k points=    72 (tetrahedron method)
                       cart. coord. in units 2pi/alat
        k(    1) = (   0.0000000   0.0000000   0.0000000), wk =   0.0011574
        k(    2) = (  -0.0833333   0.0833333  -0.0833333), wk =   0.0092593
        k(    3) = (  -0.1666667   0.1666667  -0.1666667), wk =   0.0092593
        k(    4) = (  -0.2500000   0.2500000  -0.2500000), wk =   0.0092593
        k(    5) = (  -0.3333333   0.3333333  -0.3333333), wk =   0.0092593
        k(    6) = (  -0.4166667   0.4166667  -0.4166667), wk =   0.0092593
        k(    7) = (   0.5000000  -0.5000000   0.5000000), wk =   0.0046296
        k(    8) = (   0.0000000   0.1666667   0.0000000), wk =   0.0069444
        k(    9) = (  -0.0833333   0.2500000  -0.0833333), wk =   0.0277778
        k(   10) = (  -0.1666667   0.3333333  -0.1666667), wk =   0.0277778
        k(   11) = (  -0.2500000   0.4166667  -0.2500000), wk =   0.0277778
        k(   12) = (  -0.3333333   0.5000000  -0.3333333), wk =   0.0277778
        k(   13) = (   0.5833333  -0.4166667   0.5833333), wk =   0.0277778
        k(   14) = (   0.5000000  -0.3333333   0.5000000), wk =   0.0277778
        k(   15) = (   0.4166667  -0.2500000   0.4166667), wk =   0.0277778
        k(   16) = (   0.3333333  -0.1666667   0.3333333), wk =   0.0277778
        k(   17) = (   0.2500000  -0.0833333   0.2500000), wk =   0.0277778
        k(   18) = (   0.1666667  -0.0000000   0.1666667), wk =   0.0138889
        k(   19) = (   0.0000000   0.3333333   0.0000000), wk =   0.0069444
        k(   20) = (  -0.0833333   0.4166667  -0.0833333), wk =   0.0277778
        k(   21) = (  -0.1666667   0.5000000  -0.1666667), wk =   0.0277778
        k(   22) = (  -0.2500000   0.5833333  -0.2500000), wk =   0.0277778
        k(   23) = (   0.6666667  -0.3333333   0.6666667), wk =   0.0277778
        k(   24) = (   0.5833333  -0.2500000   0.5833333), wk =   0.0277778
        k(   25) = (   0.5000000  -0.1666667   0.5000000), wk =   0.0277778
        k(   26) = (   0.4166667  -0.0833333   0.4166667), wk =   0.0277778
        k(   27) = (   0.3333333   0.0000000   0.3333333), wk =   0.0138889
        k(   28) = (   0.0000000   0.5000000   0.0000000), wk =   0.0069444
        k(   29) = (  -0.0833333   0.5833333  -0.0833333), wk =   0.0277778
        k(   30) = (  -0.1666667   0.6666667  -0.1666667), wk =   0.0277778
        k(   31) = (   0.7500000  -0.2500000   0.7500000), wk =   0.0277778
        k(   32) = (   0.6666667  -0.1666667   0.6666667), wk =   0.0277778
        k(   33) = (   0.5833333  -0.0833333   0.5833333), wk =   0.0277778
        k(   34) = (   0.5000000   0.0000000   0.5000000), wk =   0.0138889
        k(   35) = (   0.0000000   0.6666667   0.0000000), wk =   0.0069444
        k(   36) = (  -0.0833333   0.7500000  -0.0833333), wk =   0.0277778
        k(   37) = (   0.8333333  -0.1666667   0.8333333), wk =   0.0277778
        k(   38) = (   0.7500000  -0.0833333   0.7500000), wk =   0.0277778
        k(   39) = (   0.6666667   0.0000000   0.6666667), wk =   0.0138889
        k(   40) = (   0.0000000   0.8333333   0.0000000), wk =   0.0069444
        k(   41) = (   0.9166667  -0.0833333   0.9166667), wk =   0.0277778
        k(   42) = (   0.8333333   0.0000000   0.8333333), wk =   0.0138889
        k(   43) = (   0.0000000  -1.0000000   0.0000000), wk =   0.0034722
        k(   44) = (  -0.1666667   0.3333333   0.0000000), wk =   0.0277778
        k(   45) = (  -0.2500000   0.4166667  -0.0833333), wk =   0.0555556
        k(   46) = (  -0.3333333   0.5000000  -0.1666667), wk =   0.0555556
        k(   47) = (   0.5833333  -0.4166667   0.7500000), wk =   0.0555556
        k(   48) = (   0.5000000  -0.3333333   0.6666667), wk =   0.0277778
        k(   49) = (  -0.1666667   0.5000000   0.0000000), wk =   0.0277778
        k(   50) = (  -0.2500000   0.5833333  -0.0833333), wk =   0.0555556
        k(   51) = (   0.6666667  -0.3333333   0.8333333), wk =   0.0555556
        k(   52) = (   0.5833333  -0.2500000   0.7500000), wk =   0.0555556
        k(   53) = (   0.5000000  -0.1666667   0.6666667), wk =   0.0555556
        k(   54) = (   0.4166667  -0.0833333   0.5833333), wk =   0.0555556
        k(   55) = (   0.3333333   0.0000000   0.5000000), wk =   0.0277778
        k(   56) = (  -0.1666667   0.6666667  -0.0000000), wk =   0.0277778
        k(   57) = (   0.7500000  -0.2500000   0.9166667), wk =   0.0555556
        k(   58) = (   0.6666667  -0.1666667   0.8333333), wk =   0.0555556
        k(   59) = (   0.5833333  -0.0833333   0.7500000), wk =   0.0555556
        k(   60) = (   0.5000000   0.0000000   0.6666667), wk =   0.0277778
        k(   61) = (   0.8333333  -0.1666667   1.0000000), wk =   0.0277778
        k(   62) = (   0.7500000  -0.0833333   0.9166667), wk =   0.0555556
        k(   63) = (   0.6666667   0.0000000   0.8333333), wk =   0.0277778
        k(   64) = (  -0.1666667  -1.0000000   0.0000000), wk =   0.0138889
        k(   65) = (   0.6666667  -0.3333333   1.0000000), wk =   0.0277778
        k(   66) = (   0.5833333  -0.2500000   0.9166667), wk =   0.0555556
        k(   67) = (   0.5000000  -0.1666667   0.8333333), wk =   0.0277778
        k(   68) = (   0.6666667  -0.1666667   1.0000000), wk =   0.0277778
        k(   69) = (   0.5833333  -0.0833333   0.9166667), wk =   0.0555556
        k(   70) = (   0.5000000   0.0000000   0.8333333), wk =   0.0277778
        k(   71) = (  -0.3333333  -1.0000000   0.0000000), wk =   0.0138889
        k(   72) = (  -0.5000000  -1.0000000   0.0000000), wk =   0.0069444

     Dense  grid:    12939 G-vectors     FFT dimensions: (  36,  36,  36)

     Largest allocated arrays     est. size (Mb)     dimensions
        Kohn-Sham Wavefunctions         0.25 Mb     (    1639,   10)
        NL pseudopotentials             0.55 Mb     (    1639,   22)
        Each V/rho on FFT grid          0.71 Mb     (   46656)
        Each G-vector array             0.10 Mb     (   12939)
        G-vector shells                 0.00 Mb     (     180)
     Largest temporary arrays     est. size (Mb)     dimensions
        Auxiliary wavefunctions         1.00 Mb     (    1639,   40)
        Each subspace H/S matrix        0.02 Mb     (      40,   40)
        Each <psi_i|beta_j> matrix      0.00 Mb     (      22,   10)

     The potential is recalculated from file :
     ./out/Si.save/charge-density.dat

     Starting wfc are   32 randomized atomic wfcs

     Band Structure Calculation
     Davidson diagonalization with overlap

     ethr =  1.93E-11,  avg # of iterations = 18.7

     total cpu time spent up to now is       36.3 secs

     End of band structure calculation

          k = 0.0000 0.0000 0.0000 (  1639 PWs)   bands (ev):

    -5.8617   6.1402   6.1402   6.1402   8.6787   8.6787   8.6787   9.3908
    13.8314  13.8587

          k =-0.0833 0.0833-0.0833 (  1612 PWs)   bands (ev):

    -5.7703   5.2716   5.9951   5.9951   8.7040   8.8916   8.8916  10.0681
    13.5775  13.5775

          k =-0.1667 0.1667-0.1667 (  1591 PWs)   bands (ev):

    -5.4986   3.7409   5.6863   5.6863   8.4273   9.3285   9.3285  11.4886
    13.1976  13.1976

          k =-0.2500 0.2500-0.2500 (  1618 PWs)   bands (ev):

    -5.0575   2.1881   5.3758   5.3758   8.0964   9.6201   9.6201  12.9379
    13.3031  13.3031

          k =-0.3333 0.3333-0.3333 (  1616 PWs)   bands (ev):

    -4.4763   0.7740   5.1346   5.1346   7.8272   9.6147   9.6147  13.8619
    14.0941  14.0941

          k =-0.4167 0.4167-0.4167 (  1616 PWs)   bands (ev):

    -3.8495  -0.3639   4.9861   4.9861   7.6577   9.4976   9.4976  13.7734
    15.3832  15.3832

          k = 0.5000-0.5000 0.5000 (  1622 PWs)   bands (ev):

    -3.5102  -0.8752   4.9363   4.9363   7.6004   9.4416   9.4416  13.6855
    16.6791  16.6791

          k = 0.0000 0.1667 0.0000 (  1615 PWs)   bands (ev):

    -5.7396   5.4397   5.7049   5.7049   8.3908   9.2620   9.2620  10.0363
    13.0640  13.9931

          k =-0.0833 0.2500-0.0833 (  1599 PWs)   bands (ev):

    -5.5276   4.1988   5.3382   5.5298   8.4061   9.3246   9.8016  10.9545
    12.7049  13.9255

          k =-0.1667 0.3333-0.1667 (  1610 PWs)   bands (ev):

    -5.1414   2.6899   5.0237   5.2028   8.5202   9.3172  10.1847  11.4643
    13.4453  13.9748

          k =-0.2500 0.4167-0.2500 (  1606 PWs)   bands (ev):

    -4.6019   1.2464   4.8136   4.8471   8.3681   9.3977  10.2019  12.0386
    14.6308  14.6928

          k =-0.3333 0.5000-0.3333 (  1616 PWs)   bands (ev):

    -3.9708   0.0082   4.5491   4.7245   8.2001   9.3578  10.0009  13.0822
    14.7177  15.8204

          k = 0.5833-0.4167 0.5833 (  1615 PWs)   bands (ev):

    -3.4733  -0.7694   4.3426   4.7566   8.1193   9.3560   9.7978  13.9234
    15.0911  16.6308

          k = 0.5000-0.3333 0.5000 (  1616 PWs)   bands (ev):

    -3.5961  -0.5895   4.2460   4.9015   8.1465   9.4728   9.6864  14.0205
    15.0643  15.5303

          k = 0.4167-0.2500 0.4167 (  1611 PWs)   bands (ev):

    -4.1848   0.3912   4.2724   5.1430   8.2806   9.6572   9.6865  13.5233
    13.6793  15.1009

          k = 0.3333-0.1667 0.3333 (  1605 PWs)   bands (ev):

    -4.7975   1.7133   4.4320   5.4550   8.5092   9.5820   9.8468  12.5656
    12.7634  15.1033

          k = 0.2500-0.0833 0.2500 (  1600 PWs)   bands (ev):

    -5.2894   3.1793   4.7370   5.7863   8.7988   9.2860   9.6367  11.7884
    12.5440  14.0154

          k = 0.1667-0.0000 0.1667 (  1592 PWs)   bands (ev):

    -5.6185   4.5388   5.2639   6.0228   8.9284   9.0288   9.0692  10.8759
    12.9341  13.6838

          k = 0.0000 0.3333 0.0000 (  1607 PWs)   bands (ev):

    -5.3752   4.0933   4.9360   4.9360   7.7854  10.3538  10.4672  10.4672
    12.6583  14.3963

          k =-0.0833 0.4167-0.0833 (  1616 PWs)   bands (ev):

    -5.0462   3.0023   4.5841   4.5997   7.8027   9.9590  10.7856  11.0286
    13.6331  14.6175

          k =-0.1667 0.5000-0.1667 (  1611 PWs)   bands (ev):

    -4.5551   1.6847   4.1257   4.3804   8.0397  10.1377  10.6086  11.1913
    15.1612  15.1941

          k =-0.2500 0.5833-0.2500 (  1610 PWs)   bands (ev):

    -3.9426   0.4420   3.6826   4.2968   8.0788  10.3440  11.0058  11.1212
    15.9040  16.3100

          k = 0.6667-0.3333 0.6667 (  1607 PWs)   bands (ev):

    -3.3525  -0.5008   3.3353   4.3518   8.1085  10.1942  10.7296  12.4947
    15.4388  16.5916

          k = 0.5833-0.2500 0.5833 (  1602 PWs)   bands (ev):

    -3.2360  -0.6629   3.1191   4.5379   8.2553  10.1429  10.5020  14.0445
    14.5964  14.8927

          k = 0.5000-0.1667 0.5000 (  1610 PWs)   bands (ev):

    -3.7418   0.1041   3.0606   4.8356   8.5254  10.1962  10.3380  13.3403
    13.4324  15.4478

          k = 0.4167-0.0833 0.4167 (  1613 PWs)   bands (ev):

    -4.3715   1.2597   3.2035   5.2070   8.8650  10.1149  10.2556  12.1801
    12.4526  16.2872

          k = 0.3333 0.0000 0.3333 (  1604 PWs)   bands (ev):

    -4.9070   2.4076   3.6964   5.5740   9.1302   9.6742   9.9314  11.7137
    12.2018  15.4490

          k = 0.0000 0.5000 0.0000 (  1612 PWs)   bands (ev):

    -4.7742   2.6150   4.2349   4.2349   7.1959   9.1856  11.8766  11.8766
    14.0662  15.0671

          k =-0.0833 0.5833-0.0833 (  1617 PWs)   bands (ev):

    -4.3351   1.7028   3.7613   3.9872   7.2797   8.8313  12.1478  12.3554
    15.3562  15.6302

          k =-0.1667 0.6667-0.1667 (  1620 PWs)   bands (ev):

    -3.7560   0.6687   3.1192   3.8798   7.4927   9.3132  11.9983  12.3093
    16.7197  17.0069

          k = 0.7500-0.2500 0.7500 (  1617 PWs)   bands (ev):

    -3.1261  -0.2651   2.5667   3.9193   7.5771  10.5169  11.8235  12.0292
    16.2539  16.6502

          k = 0.6667-0.1667 0.6667 (  1607 PWs)   bands (ev):

    -2.7972  -0.6853   2.1997   4.1012   7.7577  11.5203  11.7313  12.2480
    14.8156  14.8808

          k = 0.5833-0.0833 0.5833 (  1611 PWs)   bands (ev):

    -3.1776  -0.1856   2.0772   4.4087   8.0868  11.4338  11.5056  13.2318
    13.3974  14.0079

          k = 0.5000 0.0000 0.5000 (  1604 PWs)   bands (ev):

    -3.8053   0.6429   2.3420   4.8045   8.5212  10.9048  11.2061  12.1918
    12.5437  15.7029

          k = 0.0000 0.6667 0.0000 (  1624 PWs)   bands (ev):

    -3.9476   1.1197   3.7043   3.7043   6.7832   8.0382  13.3772  13.3772
    15.8103  16.0038

          k =-0.0833 0.7500-0.0833 (  1618 PWs)   bands (ev):

    -3.4098   0.3319   3.2079   3.5610   6.9454   7.9124  13.6825  13.7442
    16.9141  17.1102

          k = 0.8333-0.1667 0.8333 (  1619 PWs)   bands (ev):

    -2.7760  -0.4395   2.4658   3.5675   7.1143   8.7818  13.5568  13.5605
    16.6823  16.8124

          k = 0.7500-0.0833 0.7500 (  1620 PWs)   bands (ev):

    -2.3008  -0.9352   1.8779   3.7227   7.2917  10.2341  13.2093  13.3808
    14.9797  15.0430

          k = 0.6667 0.0000 0.6667 (  1612 PWs)   bands (ev):

    -2.5747  -0.6486   1.6730   4.0136   7.6227  11.8686  12.5902  13.1528
    13.4818  13.7706

          k = 0.0000 0.8333 0.0000 (  1628 PWs)   bands (ev):

    -2.9128  -0.3356   3.3774   3.3774   6.6215   7.2201  14.9315  14.9315
    17.2035  17.5053

          k = 0.9167-0.0833 0.9167 (  1622 PWs)   bands (ev):

    -2.2956  -1.0259   2.9346   3.3437   6.8209   7.3959  15.1763  15.2562
    16.9425  17.0188

          k = 0.8333 0.0000 0.8333 (  1614 PWs)   bands (ev):

    -1.8338  -1.4332   2.2492   3.4617   6.9807   8.6087  14.6313  15.1177
    15.1970  15.5610

          k = 0.0000-1.0000 0.0000 (  1604 PWs)   bands (ev):

    -1.6962  -1.6962   3.2673   3.2673   6.7556   6.7556  16.1971  16.1971
    17.0959  17.0959

          k =-0.1667 0.3333 0.0000 (  1603 PWs)   bands (ev):

    -5.2574   3.4001   4.4853   5.4290   8.4291   9.6429  10.2695  10.9782
    12.9310  14.2808

          k =-0.2500 0.4167-0.0833 (  1607 PWs)   bands (ev):

    -4.8184   2.1533   3.9487   5.1517   8.7053   9.6108  10.6705  10.9612
    13.4055  15.3781

          k =-0.3333 0.5000-0.1667 (  1604 PWs)   bands (ev):

    -4.2391   0.8435   3.6789   4.8214   8.7389   9.4809  10.7260  11.6145
    14.2798  15.8504

          k = 0.5833-0.4167 0.7500 (  1612 PWs)   bands (ev):

    -3.6112  -0.2550   3.5520   4.5728   8.6811   9.2828  10.6421  12.8328
    15.1005  15.7067

          k = 0.5000-0.3333 0.6667 (  1602 PWs)   bands (ev):

    -3.2677  -0.7592   3.5167   4.4802   8.6598   9.1945  10.5959  14.1214
    14.3358  15.9568

          k =-0.1667 0.5000 0.0000 (  1617 PWs)   bands (ev):

    -4.6629   2.2088   3.7843   4.4998   7.8673   9.5852  10.9197  11.7517
    14.2363  15.5293

          k =-0.2500 0.5833-0.0833 (  1611 PWs)   bands (ev):

    -4.1269   1.1538   3.2413   4.2072   8.1975   9.8095  10.6542  12.1311
    14.9444  16.9861

          k = 0.6667-0.3333 0.8333 (  1617 PWs)   bands (ev):

    -3.4962   0.0910   2.8827   3.9938   8.3132  10.2913  10.8864  12.1066
    15.9083  16.1542

          k = 0.5833-0.2500 0.7500 (  1607 PWs)   bands (ev):

    -2.9929  -0.6236   2.6351   3.9756   8.4408  10.0167  11.9941  12.3558
    14.3523  16.6241

          k = 0.5000-0.1667 0.6667 (  1605 PWs)   bands (ev):

    -3.1304  -0.4341   2.5147   4.1503   8.6936   9.8268  11.9104  12.7389
    14.0607  15.3929

          k = 0.4167-0.0833 0.5833 (  1610 PWs)   bands (ev):

    -3.7270   0.4519   2.5866   4.4709   9.0592   9.6890  11.3644  11.8630
    14.0906  15.7290

          k = 0.3333 0.0000 0.5000 (  1606 PWs)   bands (ev):

    -4.3342   1.4370   3.0036   4.8574   9.3028   9.4478  10.7333  11.4400
    13.3746  16.8373

          k =-0.1667 0.6667-0.0000 (  1626 PWs)   bands (ev):

    -3.8480   0.9436   3.2712   3.7064   7.4600   8.5308  12.1607  13.3239
    15.6993  17.1231

          k = 0.7500-0.2500 0.9167 (  1621 PWs)   bands (ev):

    -3.2381   0.1052   2.6736   3.4857   7.7905   9.0718  11.8527  13.6846
    16.3090  16.6492

          k = 0.6667-0.1667 0.8333 (  1616 PWs)   bands (ev):

    -2.6426  -0.6154   2.1453   3.4938   7.9421  10.3717  11.5552  13.6103
    14.5298  16.9886

          k = 0.5833-0.0833 0.7500 (  1614 PWs)   bands (ev):

    -2.5695  -0.6880   1.8522   3.6945   8.2011  11.1371  12.1294  12.8156
    13.5046  15.4476

          k = 0.5000 0.0000 0.6667 (  1621 PWs)   bands (ev):

    -3.1124  -0.0937   1.9392   4.0435   8.5982  10.7329  11.5735  12.9330
    14.0324  14.3102

          k = 0.8333-0.1667 1.0000 (  1617 PWs)   bands (ev):

    -2.8343  -0.3714   2.9858   3.1853   7.2824   7.7862  13.5323  14.9264
    16.6767  17.1934

          k = 0.7500-0.0833 0.9167 (  1620 PWs)   bands (ev):

    -2.2003  -1.0165   2.3439   3.1404   7.5715   8.7062  13.2069  14.6866
    15.3693  17.0642

          k = 0.6667 0.0000 0.8333 (  1620 PWs)   bands (ev):

    -2.0410  -1.1327   1.8370   3.3395   7.8107  10.2410  12.7510  13.1273
    14.9022  15.7788

          k =-0.1667-1.0000 0.0000 (  1622 PWs)   bands (ev):

    -1.6569  -1.6569   2.9507   2.9507   7.3793   7.3793  14.9987  14.9987
    16.7008  16.7008

          k = 0.6667-0.3333 1.0000 (  1610 PWs)   bands (ev):

    -3.5588   0.4830   2.5285   3.8206   8.9331   9.7736  10.3229  13.1713
    15.0772  15.9787

          k = 0.5833-0.2500 0.9167 (  1611 PWs)   bands (ev):

    -2.9292  -0.2912   2.1783   3.4783   9.3005   9.8435  10.8307  13.5932
    14.1753  16.0511

          k = 0.5000-0.1667 0.8333 (  1610 PWs)   bands (ev):

    -2.5642  -0.7254   2.0851   3.3470   9.4236   9.6383  12.1729  12.6016
    13.6529  17.1961

          k = 0.6667-0.1667 1.0000 (  1618 PWs)   bands (ev):

    -2.6173  -0.5152   2.3277   2.9536   8.7551   9.1480  11.4689  14.3939
    14.9514  16.8171

          k = 0.5833-0.0833 0.9167 (  1615 PWs)   bands (ev):

    -2.0889  -1.0242   2.0062   2.7970   9.0926  10.3557  11.1938  12.5760
    15.3247  17.2167

          k = 0.5000 0.0000 0.8333 (  1612 PWs)   bands (ev):

    -2.3216  -0.7941   1.8795   3.0251   9.3956  10.5532  11.0746  12.3239
    14.9066  16.2997

          k =-0.3333-1.0000 0.0000 (  1618 PWs)   bands (ev):

    -1.5726  -1.5726   2.4522   2.4522   8.8158   8.8158  12.8459  12.8459
    16.6736  16.6736

          k =-0.5000-1.0000 0.0000 (  1628 PWs)   bands (ev):

    -1.5270  -1.5270   2.2397   2.2397  10.3367  10.3367  11.0871  11.0871
    16.6787  16.6787

     the Fermi energy is     7.6061 ev

     Writing output data file Si.save

     init_run     :      0.17s CPU      0.18s WALL (       1 calls)
     electrons    :     34.43s CPU     35.59s WALL (       1 calls)

     Called by init_run:
     wfcinit      :      0.00s CPU      0.00s WALL (       1 calls)
     potinit      :      0.05s CPU      0.05s WALL (       1 calls)

     Called by electrons:
     c_bands      :     34.31s CPU     35.47s WALL (       1 calls)
     v_of_rho     :      0.04s CPU      0.04s WALL (       1 calls)

     Called by c_bands:
     init_us_2    :      0.10s CPU      0.11s WALL (      72 calls)
     cegterg      :     26.71s CPU     27.53s WALL (      89 calls)

     Called by *egterg:
     h_psi        :     28.88s CPU     29.84s WALL (    1507 calls)
     g_psi        :      0.07s CPU      0.07s WALL (    1346 calls)
     cdiaghg      :      0.58s CPU      0.61s WALL (    1418 calls)

     Called by h_psi:
     add_vuspsi   :      0.80s CPU      0.84s WALL (    1507 calls)

     General routines
     calbec       :      0.88s CPU      0.92s WALL (    1507 calls)
     fft          :      0.02s CPU      0.02s WALL (      10 calls)
     fftw         :     25.79s CPU     26.65s WALL (   21662 calls)
     davcio       :      0.00s CPU      0.02s WALL (      72 calls)

     Parallel routines
     fft_scatter  :      0.62s CPU      0.64s WALL (   21672 calls)

     PWSCF        :    36.39s CPU        37.61s WALL


   This run was terminated on:  17: 8:41  13Feb2023            

=------------------------------------------------------------------------------=
   JOB DONE.
=------------------------------------------------------------------------------=
