
     Program PWSCF v.5.1 starts on 13Feb2023 at 22:31:50 

     This program is part of the open-source Quantum ESPRESSO suite
     for quantum simulation of materials; please cite
         "P. Giannozzi et al., J. Phys.:Condens. Matter 21 395502 (2009);
          URL http://www.quantum-espresso.org", 
     in publications or presentations arising from this work. More details at
     http://www.quantum-espresso.org/quote

     Parallel version (MPI), running on     1 processors
     Waiting for input...
     Reading input from standard input

     Current dimensions of program PWSCF are:
     Max number of different atomic species (ntypx) = 10
     Max number of k-points (npk) =  40000
     Max angular momentum in pseudopotentials (lmaxx) =  3

     Atomic positions and unit cell read from directory:
     ./out/Si.save/

               file Si.pbe-mt_fhi.UPF: wavefunction(s)  4f renormalized

     Subspace diagonalization in iterative solution of the eigenvalue problem:
     a serial algorithm will be used


     G-vector sticks info
     --------------------
     sticks:   dense  smooth     PW     G-vecs:    dense   smooth      PW
     Sum         733     733    211                12939    12939    2109



     bravais-lattice index     =            2
     lattice parameter (alat)  =      10.2623  a.u.
     unit-cell volume          =     270.1967 (a.u.)^3
     number of atoms/cell      =            2
     number of atomic types    =            1
     number of electrons       =        68.00
     number of Kohn-Sham states=           34
     kinetic-energy cutoff     =      50.0000  Ry
     charge density cutoff     =     200.0000  Ry
     Exchange-correlation      = PBE ( 1  4  3  4 0)

     celldm(1)=  10.262347  celldm(2)=   0.000000  celldm(3)=   0.000000
     celldm(4)=   0.000000  celldm(5)=   0.000000  celldm(6)=   0.000000

     crystal axes: (cart. coord. in units of alat)
               a(1) = (  -0.500000   0.000000   0.500000 )  
               a(2) = (   0.000000   0.500000   0.500000 )  
               a(3) = (  -0.500000   0.500000   0.000000 )  

     reciprocal axes: (cart. coord. in units 2 pi/alat)
               b(1) = ( -1.000000 -1.000000  1.000000 )  
               b(2) = (  1.000000  1.000000  1.000000 )  
               b(3) = ( -1.000000  1.000000 -1.000000 )  


     PseudoPot. # 1 for Si read from file:
     /home/acedemo/psudo/Si.pbe-mt_fhi.UPF
     MD5 check sum: 259057c2adf9952f9ced37ae3d9e311d
     Pseudo is Norm-conserving, Zval =  4.0
     Generated using FHI98PP, converted with fhi2upf.x v.5.0.2
     Using radial grid of  495 points,  3 beta functions with: 
                l(1) =   0
                l(2) =   1
                l(3) =   3

     atomic species   valence    mass     pseudopotential
        Si             4.00    28.08550     Si( 1.00)

     48 Sym. Ops., with inversion, found (24 have fractional translation)



   Cartesian axes

     site n.     atom                  positions (alat units)
         1           Si  tau(   1) = (   0.0000000   0.0000000   0.0000000  )
         2           Si  tau(   2) = (   0.2500000   0.2500000   0.2500000  )

     number of k points=    51  Marzari-Vanderbilt smearing, width (Ry)=  0.0500
                       cart. coord. in units 2pi/alat
        k(    1) = (   0.5000000   0.5000000   0.5000000), wk =   0.0000000
        k(    2) = (   0.4500000   0.4500000   0.4500000), wk =   0.0014779
        k(    3) = (   0.4000000   0.4000000   0.4000000), wk =   0.0029558
        k(    4) = (   0.3500000   0.3500000   0.3500000), wk =   0.0044337
        k(    5) = (   0.3000000   0.3000000   0.3000000), wk =   0.0059116
        k(    6) = (   0.2500000   0.2500000   0.2500000), wk =   0.0073895
        k(    7) = (   0.2000000   0.2000000   0.2000000), wk =   0.0088674
        k(    8) = (   0.1500000   0.1500000   0.1500000), wk =   0.0103453
        k(    9) = (   0.1000000   0.1000000   0.1000000), wk =   0.0118232
        k(   10) = (   0.0500000   0.0500000   0.0500000), wk =   0.0133011
        k(   11) = (   0.0000000   0.0000000   0.0000000), wk =   0.0147790
        k(   12) = (   0.0000000   0.1000000   0.0000000), wk =   0.0168691
        k(   13) = (   0.0000000   0.2000000   0.0000000), wk =   0.0189591
        k(   14) = (   0.0000000   0.3000000   0.0000000), wk =   0.0210492
        k(   15) = (   0.0000000   0.4000000   0.0000000), wk =   0.0231392
        k(   16) = (   0.0000000   0.5000000   0.0000000), wk =   0.0252293
        k(   17) = (   0.0000000   0.6000000   0.0000000), wk =   0.0273194
        k(   18) = (   0.0000000   0.7000000   0.0000000), wk =   0.0294094
        k(   19) = (   0.0000000   0.8000000   0.0000000), wk =   0.0314995
        k(   20) = (   0.0000000   0.9000000   0.0000000), wk =   0.0335896
        k(   21) = (   0.0000000   1.0000000   0.0000000), wk =   0.0356796
        k(   22) = (   0.0000000   0.9750000   0.0750000), wk =   0.0370621
        k(   23) = (   0.0000000   0.9500000   0.1500000), wk =   0.0384445
        k(   24) = (  -0.0000000   0.9250000   0.2250000), wk =   0.0398270
        k(   25) = (  -0.0000000   0.9000000   0.3000000), wk =   0.0412094
        k(   26) = (   0.0000000   0.8750000   0.3750000), wk =   0.0425919
        k(   27) = (   0.0000000   0.8500000   0.4500000), wk =   0.0439743
        k(   28) = (   0.0000000   0.8250000   0.5250000), wk =   0.0453568
        k(   29) = (  -0.0000000   0.8000000   0.6000000), wk =   0.0467392
        k(   30) = (  -0.0000000   0.7750000   0.6750000), wk =   0.0481217
        k(   31) = (   0.0000000   0.7500000   0.7500000), wk =   0.0495041
        k(   32) = (   0.0000000   0.7250000   0.7750000), wk =   0.0500266
        k(   33) = (   0.0000000   0.7000000   0.8000000), wk =   0.0505491
        k(   34) = (   0.0000000   0.6750000   0.8250000), wk =   0.0510717
        k(   35) = (   0.0000000   0.6500000   0.8500000), wk =   0.0515942
        k(   36) = (   0.0000000   0.6250000   0.8750000), wk =   0.0521167
        k(   37) = (   0.0000000   0.6000000   0.9000000), wk =   0.0526392
        k(   38) = (   0.0000000   0.5750000   0.9250000), wk =   0.0531617
        k(   39) = (   0.0000000   0.5500000   0.9500000), wk =   0.0536842
        k(   40) = (   0.0000000   0.5250000   0.9750000), wk =   0.0542067
        k(   41) = (   0.0000000   0.5000000   1.0000000), wk =   0.0547293
        k(   42) = (   0.0000000   0.4500000   0.9000000), wk =   0.0574942
        k(   43) = (  -0.0000000   0.4000000   0.8000000), wk =   0.0602591
        k(   44) = (  -0.0000000   0.3500000   0.7000000), wk =   0.0630239
        k(   45) = (  -0.0000000   0.3000000   0.6000000), wk =   0.0657888
        k(   46) = (   0.0000000   0.2500000   0.5000000), wk =   0.0685537
        k(   47) = (   0.0000000   0.2000000   0.4000000), wk =   0.0713186
        k(   48) = (   0.0000000   0.1500000   0.3000000), wk =   0.0740835
        k(   49) = (  -0.0000000   0.1000000   0.2000000), wk =   0.0768484
        k(   50) = (  -0.0000000   0.0500000   0.1000000), wk =   0.0796133
        k(   51) = (   0.0000000   0.0000000   0.0000000), wk =   0.0823782

     Dense  grid:    12939 G-vectors     FFT dimensions: (  36,  36,  36)

     Largest allocated arrays     est. size (Mb)     dimensions
        Kohn-Sham Wavefunctions         0.85 Mb     (    1639,   34)
        NL pseudopotentials             0.55 Mb     (    1639,   22)
        Each V/rho on FFT grid          0.71 Mb     (   46656)
        Each G-vector array             0.10 Mb     (   12939)
        G-vector shells                 0.00 Mb     (     180)
     Largest temporary arrays     est. size (Mb)     dimensions
        Auxiliary wavefunctions         3.40 Mb     (    1639,  136)
        Each subspace H/S matrix        0.28 Mb     (     136,  136)
        Each <psi_i|beta_j> matrix      0.01 Mb     (      22,   34)

     The potential is recalculated from file :
     ./out/Si.save/charge-density.dat

     Starting wfc are   32 randomized atomic wfcs +    2 random wfc

     Band Structure Calculation
     Davidson diagonalization with overlap
     c_bands:  1 eigenvalues not converged

     ethr =  2.35E-12,  avg # of iterations = 23.9

     total cpu time spent up to now is       70.8 secs

     End of band structure calculation

          k = 0.5000 0.5000 0.5000 (  1622 PWs)   bands (ev):

   -10.1128  -9.8375  -1.3538  -1.3538  -0.0644  -0.0644   0.9531   1.1296
     8.6437   8.6437   9.3343   9.3343   9.5906  12.3014  17.8938  18.2967
    18.2967  19.0260  19.5889  19.5889  20.5762  21.7079  25.4687  25.4687
    27.9700  27.9700  28.7726  28.7726  29.4150  29.6202  29.6202  31.1642
    31.6150  31.9252

          k = 0.4500 0.4500 0.4500 (  1610 PWs)   bands (ev):

   -10.6927  -9.1858  -1.3617  -1.3617   0.0132   0.0132   0.8269   1.3202
     7.7806   7.7806   9.2258  10.2700  10.2700  12.6977  16.7339  17.1785
    17.1785  18.8220  20.7613  20.7613  20.8437  22.9093  25.3950  25.3950
    27.7034  27.7034  29.0857  29.0857  29.1653  29.7849  29.7849  31.1591
    31.4902  32.4437

          k = 0.4000 0.4000 0.4000 (  1616 PWs)   bands (ev):

   -11.3189  -8.3447  -1.3714  -1.3714   0.2316   0.2316   0.7025   1.6363
     6.7200   6.7200   8.4664  11.5475  11.5475  13.4507  15.1674  15.6596
    15.6596  17.4932  22.3132  22.4163  22.4163  24.7262  25.2336  25.2336
    27.2783  27.2783  28.6786  29.6607  29.6607  30.2325  30.2325  30.6851
    32.2057  33.1188

          k = 0.3500 0.3500 0.3500 (  1610 PWs)   bands (ev):

   -11.8760  -7.4300  -1.3570  -1.3570   0.5616   0.5616   0.6389   2.0132
     5.7226   5.7226   7.6225  12.8954  12.8954  12.9058  14.1869  14.1869
    15.0339  16.1179  23.8691  23.8691  23.8798  25.2826  25.2826  26.5703
    26.8968  26.8968  28.1748  30.3292  30.3292  30.4393  30.8694  30.8694
    33.0908  33.7826

          k = 0.3000 0.3000 0.3000 (  1615 PWs)   bands (ev):

   -12.3606  -6.4466  -1.2988  -1.2988   0.6388   0.9756   0.9756   2.4368
     4.8083   4.8083   6.7946  11.2643  12.7095  12.7095  14.3809  14.3809
    14.7777  16.1374  24.1986  24.1986  25.3519  26.1324  26.1324  26.9369
    26.9369  27.7143  28.0065  30.8585  31.0592  31.0592  31.6157  31.6157
    34.0849  34.3306

          k = 0.2500 0.2500 0.2500 (  1618 PWs)   bands (ev):

   -12.7716  -5.3979  -1.1856  -1.1856   0.6991   1.4371   1.4371   2.8845
     4.0048   4.0048   6.0237   9.5930  11.3620  11.3620  13.5471  15.8708
    15.8708  17.3500  24.0186  24.0186  26.0533  26.0533  26.4566  27.3155
    28.5292  28.5292  28.7899  31.8008  31.8008  32.3880  32.3930  32.3930
    34.5527  35.1699

          k = 0.2000 0.2000 0.2000 (  1606 PWs)   bands (ev):

   -13.1084  -4.2884  -1.0115  -1.0115   0.8122   1.8345   1.8345   3.3032
     3.4181   3.4181   5.3437   8.0111  10.0773  10.0773  12.4034  17.4277
    17.4277  18.6047  23.8060  23.8060  25.8170  25.8170  26.7793  26.9851
    29.8000  30.3356  30.3356  32.2523  32.2523  33.0319  33.0319  34.2577
    34.4729  34.5525

          k = 0.1500 0.1500 0.1500 (  1600 PWs)   bands (ev):

   -13.3706  -3.1263  -0.7742  -0.7742   0.9582   1.8140   1.8140   3.3982
     3.3982   3.5545   4.7878   6.6560   8.8670   8.8670  11.3705  19.0258
    19.0258  19.8546  23.6352  23.6352  25.6157  25.6157  26.5288  26.7263
    30.5524  30.5524  31.0726  32.7578  32.7578  33.7173  33.7173  33.7286
    34.8541  34.8541

          k = 0.1000 0.1000 0.1000 (  1606 PWs)   bands (ev):

   -13.5581  -1.9285  -0.4739  -0.4739   1.0806   1.3738   1.3738   3.4575
     3.9432   3.9432   4.1686   5.9380   7.7374   7.7374  10.4905  20.6135
    20.6135  21.0427  23.5499  23.5499  25.4586  25.4586  26.0295  26.5407
    28.9028  28.9028  31.9151  33.6596  34.1153  34.1153  34.7825  34.7825
    35.7114  35.7114

          k = 0.0500 0.0500 0.0500 (  1630 PWs)   bands (ev):

   -13.6707  -0.7397  -0.1188  -0.1188   0.8699   0.8699   0.9982   3.1712
     3.3854   4.6864   4.6864   5.9412   6.7080   6.7080   9.8522  21.9788
    21.9788  22.0441  23.6828  23.6828  25.3177  25.3177  25.4501  26.4291
    27.2502  27.2502  31.8826  34.4521  34.7274  34.7274  36.0357  36.0357
    36.6498  36.6498

          k = 0.0000 0.0000 0.0000 (  1639 PWs)   bands (ev):

   -13.7082   0.1704   0.1704   0.1704   0.5255   0.5255   0.5255   3.0105
     3.0677   5.2765   5.2765   6.0280   6.0280   6.0280   9.6068  22.5047
    22.5047  22.5047  24.0942  24.0942  25.1323  25.1323  25.1323  26.3919
    26.3919  26.3919  31.7845  34.9292  34.9292  34.9292  36.4953  36.4953
    37.1351  37.1351

          k = 0.0000 0.1000 0.0000 (  1627 PWs)   bands (ev):

   -13.6582  -0.5504  -0.5504  -0.0769   0.2434   1.3251   1.3251   3.1278
     3.4391   4.2171   5.3268   6.0925   6.0925   7.0817   9.9694  21.7065
    21.7065  22.5508  23.0265  23.5142  25.4648  25.4648  25.5027  26.9794
    26.9794  27.5258  31.9161  34.3539  34.3539  34.8639  35.5433  36.1374
    36.3540  37.0188

          k = 0.0000 0.2000 0.0000 (  1599 PWs)   bands (ev):

   -13.5081  -1.3380  -1.3380  -0.6262  -0.3392   2.1109   2.3433   2.3433
     4.2887   4.4085   5.4777   6.2915   6.2915   7.9647  11.1408  20.2583
    20.2583  21.3536  22.4847  22.6888  25.7502  25.7502  25.9287  28.4954
    28.4954  29.3789  32.0696  32.8610  32.8610  33.6077  34.4016  34.8465
    35.9951  36.7584

          k = 0.0000 0.3000 0.0000 (  1607 PWs)   bands (ev):

   -13.2582  -2.0418  -2.0418  -1.2683  -0.9640   0.6012   3.4099   3.4099
     5.3557   5.3769   5.7293   6.6442   6.6442   8.5066  12.9116  18.7344
    18.7344  19.6747  21.3394  22.9184  26.0064  26.0064  26.0936  30.0591
    30.0591  31.1462  31.1462  31.2689  31.4289  31.5137  33.1182  35.2047
    35.5360  36.5598

          k = 0.0000 0.4000 0.0000 (  1607 PWs)   bands (ev):

   -12.9086  -2.6554  -2.6554  -1.9806  -1.5451  -0.7894   4.4777   4.4777
     6.0813   6.5218   6.5485   7.1907   7.1907   8.9820  14.9666  17.2478
    17.2478  18.0614  20.1655  23.2380  25.7888  26.3187  26.3187  28.4425
    28.4425  29.2143  30.4311  32.3226  32.5356  32.5356  32.8499  35.0625
    35.6943  35.6943

          k = 0.0000 0.5000 0.0000 (  1612 PWs)   bands (ev):

   -12.4598  -3.1765  -3.1765  -2.9453  -2.0534  -1.7954   5.4837   5.4837
     6.5339   7.7544   7.8271   7.9894   7.9894   9.5177  15.8305  15.8305
    16.5319  17.1736  19.0140  23.6419  24.7866  26.1623  26.1623  26.7316
    26.7316  27.0413  29.7971  31.5789  33.6279  34.3612  34.3612  34.6219
    34.9333  34.9333

          k = 0.0000 0.6000 0.0000 (  1620 PWs)   bands (ev):

   -11.9123  -4.1689  -3.6039  -3.6039  -2.4770  -2.3820   6.3910   6.3910
     7.0868   8.9852   9.0713   9.0713   9.1563  10.2095  14.4979  14.4979
    15.0932  17.9303  19.4759  23.2450  23.9249  23.9249  24.0396  25.0403
    27.1852  27.1852  29.5521  30.9674  33.6953  33.6953  33.7442  34.2394
    36.3762  36.3762

          k = 0.0000 0.7000 0.0000 (  1632 PWs)   bands (ev):

   -11.2667  -5.4194  -3.9369  -3.9369  -2.8099  -2.7677   7.2316   7.2316
     7.7400  10.0312  10.3823  10.3823  10.4738  11.2293  13.2732  13.2732
    13.7489  16.9797  21.4907  21.7331  21.7331  21.8176  22.7682  24.9248
    27.7293  27.7293  29.0941  30.8365  32.7366  32.7366  33.6528  33.9280
    35.8538  36.3523

          k = 0.0000 0.8000 0.0000 (  1624 PWs)   bands (ev):

   -10.5239  -6.6127  -4.1750  -4.1750  -3.0488  -3.0289   8.0661   8.0661
     8.4933  10.8456  11.5329  11.5329  11.6225  12.4802  12.4802  12.5010
    12.5959  16.3035  19.6269  19.6269  19.7173  20.8861  24.0369  25.7973
    28.3278  28.3427  28.3427  31.0730  31.8022  31.8022  33.5416  33.6945
    34.9513  35.3779

          k = 0.0000 0.9000 0.0000 (  1608 PWs)   bands (ev):

    -9.6851  -7.7262  -4.3180  -4.3180  -3.1917  -3.1836   8.9367   8.9367
     9.3464  10.8404  10.8404  11.3508  11.5502  12.2420  13.7325  13.7325
    14.1183  16.1279  17.6447  17.6447  18.1345  19.1658  25.5924  27.4334
    27.4690  28.9904  28.9904  30.9531  30.9531  30.9796  33.4723  33.5416
    33.8533  34.4399

          k = 0.0000 1.0000 0.0000 (  1604 PWs)   bands (ev):

    -8.7517  -8.7517  -4.3656  -4.3656  -3.2371  -3.2371   9.8268   9.8268
     9.9014   9.9014  10.2990  10.2990  12.1073  12.1073  15.0045  15.0045
    15.5846  15.5846  16.2371  16.2371  17.8703  17.8703  26.5821  26.5821
    29.4112  29.4112  29.5389  29.5389  30.4638  30.4638  33.4689  33.4689
    33.7585  33.7585

          k = 0.0000 0.9750 0.0750 (  1618 PWs)   bands (ev):

    -8.9665  -8.4767  -4.6929  -4.6922  -2.8526  -2.8513   8.6985   9.1712
     9.6464  10.1201  10.6638  11.1302  12.3099  12.5482  14.3673  14.5845
    15.7846  15.8091  16.3033  16.6669  17.9454  18.3355  25.9428  26.3753
    28.7808  29.1483  29.5354  29.7937  30.6952  31.1219  32.6854  32.7020
    33.8271  34.0610

          k = 0.0000 0.9500 0.1500 (  1622 PWs)   bands (ev):

    -9.1206  -8.1426  -5.2448  -5.2415  -2.1270  -2.1260   7.2754   8.2101
     9.4624  10.4036  10.8235  11.5825  12.7010  13.4187  13.7742  14.1133
    15.7491  16.1395  16.4646  17.4549  18.5970  19.1738  24.8186  25.6454
    27.9972  28.1362  29.3200  30.2095  31.1189  31.3072  31.3643  32.3735
    33.8938  34.1075

          k =-0.0000 0.9250 0.2250 (  1622 PWs)   bands (ev):

    -9.2138  -7.7518  -5.7908  -5.7814  -1.2939  -1.2924   5.8507   7.2442
     9.3032  10.6401  10.9176  11.6849  12.1456  13.3970  14.3161  14.5983
    15.9624  16.3402  16.9375  18.1778  19.6998  20.1868  23.5372  24.7550
    26.9750  27.2774  28.5960  29.1763  29.6720  31.2651  32.1802  33.6019
    33.7919  33.9260

          k =-0.0000 0.9000 0.3000 (  1623 PWs)   bands (ev):

    -9.2462  -7.3153  -6.2927  -6.2636  -0.4006  -0.3893   4.4644   6.3120
     9.1422  10.6561  10.9965  11.4413  11.5964  13.3953  14.9185  15.0385
    16.6250  16.6401  17.6633  19.0298  21.0020  21.2411  22.2235  23.8332
    25.8076  26.5839  27.3145  27.6174  28.7495  31.5803  32.6511  33.8110
    33.9602  35.1486

          k = 0.0000 0.8750 0.3750 (  1614 PWs)   bands (ev):

    -9.2179  -6.9685  -6.7403  -6.5437   0.5105   0.5664   3.1630   5.4317
     8.9304  10.1331  10.9095  11.0427  11.8458  13.6975  15.0121  15.5267
    17.0897  17.3849  18.6546  19.9908  20.8971  22.2169  22.2463  23.0658
    24.7226  25.4693  26.2412  26.3642  28.1904  31.5650  32.4506  34.2518
    34.8867  36.2256

          k = 0.0000 0.8500 0.4500 (  1612 PWs)   bands (ev):

    -9.1295  -7.1965  -7.1294  -6.1346   1.0868   1.5528   2.3020   4.6258
     8.6062   9.3579  10.7431  10.9910  12.3156  14.1490  15.0807  15.8495
    17.6469  18.0072  19.6118  19.8926  20.6556  21.7894  22.7002  23.6674
    24.0988  24.2052  25.4165  26.1503  27.8340  31.3252  32.1318  34.7014
    35.9728  36.3853

          k = 0.0000 0.8250 0.5250 (  1611 PWs)   bands (ev):

    -8.9823  -7.5097  -7.4570  -5.5271   0.2758   2.4715   2.9363   3.9903
     8.1559   8.5993  10.6371  11.1377  12.8486  14.6661  15.1731  16.1315
    18.1150  18.4601  18.4960  20.3914  20.9156  21.2443  21.9173  23.1700
    23.4929  25.0221  26.2047  26.3328  27.8429  30.9802  31.8347  34.3144
    36.5368  36.8607

          k =-0.0000 0.8000 0.6000 (  1614 PWs)   bands (ev):

    -8.7801  -7.7770  -7.7187  -4.8598  -0.8582   2.6792   4.0028   4.1602
     7.6364   7.8966  10.7046  11.3375  13.4151  15.0859  15.3961  16.4123
    17.1570  18.5735  18.8293  19.2518  20.5322  20.5381  22.5640  22.6181
    23.2887  26.0686  26.4095  27.9260  28.5136  30.5365  31.5786  33.3803
    35.2986  35.6780

          k =-0.0000 0.7750 0.6750 (  1621 PWs)   bands (ev):

    -8.5366  -7.9878  -7.9001  -4.1770  -1.9362   2.1633   5.1159   5.1256
     7.1325   7.2880  10.9032  11.5844  13.9665  15.1658  15.8387  16.0042
    16.7634  18.0286  18.2665  18.8065  19.8020  20.4996  22.1610  22.6328
    24.4169  26.3414  27.2582  29.5630  29.7689  29.9816  31.3343  32.5940
    33.7094  33.9502

          k = 0.0000 0.7500 0.7500 (  1624 PWs)   bands (ev):

    -8.3289  -8.1398  -7.9243  -3.7755  -2.6303   1.5823   5.9378   5.9897
     6.9322   7.0556  11.2080  11.8647  14.1852  14.9628  15.3163  15.8499
    16.7622  17.3124  17.9575  18.0427  20.1760  20.3998  22.1886  22.3185
    25.7358  26.5022  27.9769  29.5305  30.2624  31.0146  31.2345  32.1963
    32.8038  32.8486

          k = 0.0000 0.7250 0.7750 (  1616 PWs)   bands (ev):

    -8.3228  -8.1338  -7.9181  -3.9460  -2.4492   1.5868   5.7776   5.8194
     7.0976   7.2367  11.2187  11.8653  14.0423  14.8928  15.4678  15.7673
    16.6296  17.3866  18.0444  18.1924  20.1803  20.4114  22.1852  22.3153
    25.5483  26.6916  27.7815  29.6644  29.9806  30.7783  31.1246  32.2956
    33.0473  33.2481

          k = 0.0000 0.7000 0.8000 (  1621 PWs)   bands (ev):

    -8.3046  -8.1160  -7.8997  -4.3022  -2.0607   1.5998   5.4470   5.4693
     7.4434   7.6189  11.2508  11.8662  13.7371  14.7038  15.5561  15.7792
    16.3602  17.5806  18.2755  18.5329  20.1938  20.4470  22.1732  22.3046
    25.1957  27.0460  27.3456  29.4284  29.7642  30.1232  31.2605  32.5311
    33.5479  34.0784

          k = 0.0000 0.6750 0.8250 (  1620 PWs)   bands (ev):

    -8.2742  -8.0865  -7.8689  -4.7083  -1.6013   1.6210   5.0729   5.0746
     7.8413   8.0667  11.3053  11.8645  13.3913  14.4366  15.2763  15.8410
    16.3599  17.8448  18.5961  18.9461  20.2191  20.5085  22.1464  22.2835
    24.8135  26.8382  27.4063  28.8386  28.9884  30.2560  31.3663  32.9030
    34.1959  34.9612

          k = 0.0000 0.6500 0.8500 (  1616 PWs)   bands (ev):

    -8.2317  -8.0453  -7.8258  -5.1247  -1.1109   1.6494   4.6732   4.6919
     8.2524   8.5412  11.3831  11.8533  13.0503  14.1257  14.9679  15.5219
    16.7645  18.1431  18.9627  19.3785  20.2650  20.5994  22.0945  22.2462
    24.4320  26.3382  27.5938  28.0873  28.4261  30.4357  31.4690  33.3848
    34.8940  35.7103

          k = 0.0000 0.6250 0.8750 (  1616 PWs)   bands (ev):

    -8.1770  -7.9927  -7.7704  -5.5388  -0.6032   1.6830   4.2775   4.3171
     8.6604   9.0276  11.4853  11.8193  12.7420  13.7930  14.6540  15.1680
    17.2318  18.4528  19.3441  19.7743  20.3682  20.7228  22.0055  22.1838
    24.0641  25.8935  27.1797  27.2700  28.5510  30.5635  31.5859  33.9170
    35.5800  35.7422

          k = 0.0000 0.6000 0.9000 (  1613 PWs)   bands (ev):

    -8.1102  -7.9295  -7.7027  -5.9452  -0.0853   1.7188   3.8943   3.9563
     9.0540   9.5132  11.6107  11.7410  12.4975  13.4521  14.3509  14.8235
    17.7207  18.7591  19.7139  20.0198  20.6268  20.8707  21.8807  22.0857
    23.7218  25.5419  26.2771  26.7568  28.9065  30.6465  31.7269  34.3380
    35.3411  36.1863

          k = 0.0000 0.5750 0.9250 (  1615 PWs)   bands (ev):

    -8.0313  -7.8568  -7.6227  -6.3405   0.4351   1.7506   3.5311   3.6179
     9.4229   9.9731  11.6156  11.7527  12.3391  13.1127  14.0764  14.5020
    18.2221  19.0505  20.0471  20.1077  20.9723  21.0187  21.7931  21.9535
    23.4193  25.3057  25.3884  26.2688  29.2918  30.6869  31.8998  34.1434
    35.4832  36.6136

          k = 0.0000 0.5500 0.9500 (  1615 PWs)   bands (ev):

    -7.9404  -7.7783  -7.5305  -6.7197   0.9433   1.7675   3.2023   3.3142
     9.7576  10.3332  11.5288  11.8891  12.2467  12.7834  13.8593  14.2149
    18.7280  19.3162  20.1268  20.3152  20.8694  21.3140  21.9042  21.9273
    23.1694  24.5003  25.2097  25.8560  29.6681  30.6728  32.1109  33.5930
    35.9761  36.7936

          k = 0.0000 0.5250 0.9750 (  1615 PWs)   bands (ev):

    -7.8374  -7.7081  -7.4260  -7.0682   1.3975   1.7497   2.9497   3.0658
    10.0499  10.4383  11.6614  11.9700  12.1826  12.4769  13.7483  13.9757
    19.2191  19.5348  20.1035  20.3399  20.7749  21.2077  22.2109  22.2709
    22.9829  23.6397  25.2241  25.5409  30.0210  30.5733  32.3651  33.0643
    36.4352  36.7910

          k = 0.0000 0.5000 1.0000 (  1628 PWs)   bands (ev):

    -7.7224  -7.7224  -7.3093  -7.3093   1.6707   1.6707   2.8999   2.8999
    10.2925  10.2925  11.9260  11.9260  12.2155  12.2155  13.7992  13.7992
    19.5810  19.5810  20.1036  20.1036  20.9620  20.9620  22.5642  22.5642
    22.9483  22.9483  25.3344  25.3344  30.3436  30.3436  32.6631  32.6631
    36.6993  36.6993

          k = 0.0000 0.4500 0.9000 (  1616 PWs)   bands (ev):

    -8.7062  -7.2908  -7.1835  -6.6459   1.2177   1.4758   2.5266   4.1364
     9.2042  10.1334  11.2707  11.3089  11.8693  13.7570  14.1794  15.0861
    18.1781  18.6338  19.9594  20.4195  20.4576  21.4563  22.1281  23.3130
    23.7587  23.9153  25.2469  26.0753  28.5136  31.1866  32.1821  34.1874
    36.1778  36.3106

          k =-0.0000 0.4000 0.8000 (  1616 PWs)   bands (ev):

    -9.7388  -6.8344  -6.7723  -5.7701   0.8095   1.0038   2.3351   5.8126
     8.0899   8.8008  10.1971  10.4465  12.6917  14.3088  15.8872  16.2170
    16.9097  17.1751  18.6067  20.0008  20.6253  22.8461  23.3220  23.7490
    24.8074  24.8934  25.7090  26.1862  28.1024  31.6401  32.3343  34.5687
    34.9297  37.0013

          k =-0.0000 0.3500 0.7000 (  1618 PWs)   bands (ev):

   -10.6615  -6.2788  -6.2324  -4.7617   0.4738   0.6034   2.3017   6.6064
     7.4729   7.9146   9.3186   9.5640  13.6850  13.8450  14.1341  16.0412
    16.0774  18.6333  19.8445  20.0690  20.7920  22.4555  23.7855  24.5562
    25.0646  26.1298  26.9015  27.6261  29.4643  31.8145  32.3592  33.9065
    33.9620  36.7211

          k =-0.0000 0.3000 0.6000 (  1609 PWs)   bands (ev):

   -11.4658  -5.6124  -5.5726  -3.6421   0.2357   0.3085   2.4030   5.6646
     6.2441   8.0343   8.7438  10.1679  12.0794  12.1918  14.1996  14.9943
    16.8325  19.6840  20.5888  20.8519  21.0184  22.1941  24.2487  26.0470
    26.5093  27.5786  28.4607  29.2508  31.0772  31.3697  31.5226  33.7454
    33.9620  35.5306

          k = 0.0000 0.2500 0.5000 (  1610 PWs)   bands (ev):

   -12.1488  -4.8343  -4.7973  -2.4358   0.1229   0.1258   2.6144   4.6608
     5.1379   7.3425   7.9767  10.1341  10.3451  12.2703  12.7084  16.1134
    17.4705  17.9271  20.6562  21.3204  22.7124  24.7179  25.1840  27.4982
    28.1001  29.0235  29.7084  30.5884  30.6158  30.9280  32.8144  33.2940
    34.5489  35.0596

          k = 0.0000 0.2000 0.4000 (  1613 PWs)   bands (ev):

   -12.7091  -3.9482  -3.9116  -1.2309   0.0563   0.2186   2.8731   3.7187
     4.2052   6.6715   7.1771   8.3971   8.7238  11.2502  14.4724  15.1914
    17.4269  19.1479  20.9930  21.7161  23.7845  26.9061  27.3044  28.1994
    28.7960  29.7836  30.0218  30.8062  31.9668  32.1708  32.4947  32.7058
    34.7146  35.4674

          k = 0.0000 0.1500 0.3000 (  1607 PWs)   bands (ev):

   -13.1458  -2.9615  -2.9245  -0.4221   0.0963   0.8967   2.8084   2.8539
     3.7879   5.8590   6.1376   7.0390   7.5863   9.8975  13.0806  16.7860
    18.8353  20.4527  21.4193  22.2046  24.4400  27.3097  27.5776  28.8434
    29.8536  30.2873  30.7139  31.6371  31.8678  32.5093  32.7951  33.6827
    34.9722  35.4475

          k =-0.0000 0.1000 0.2000 (  1600 PWs)   bands (ev):

   -13.4581  -1.8904  -1.8538  -0.1103   0.2325   2.0073   2.0573   2.3515
     3.9965   4.6584   5.0640   6.3838   6.8972   8.6025  11.2747  19.1466
    20.3036  21.8068  21.8899  22.7847  24.9494  26.4411  26.5482  28.1759
    28.6158  30.1493  31.8528  32.4997  33.1500  33.4704  34.0623  34.6647
    35.1653  35.9223

          k =-0.0000 0.0500 0.1000 (  1623 PWs)   bands (ev):

   -13.6457  -0.7713  -0.7425   0.0854   0.4201   1.2754   1.3240   3.1963
     3.5450   4.1672   4.9809   6.1098   6.3611   7.2390  10.0355  21.3726
    21.7180  22.3147  23.1404  23.4706  25.2497  25.6179  25.6593  26.9749
    27.0514  27.8841  31.9379  34.2374  34.2891  34.8098  35.4524  36.0300
    36.1521  36.7806

          k = 0.0000 0.0000 0.0000 (  1639 PWs)   bands (ev):

   -13.7082   0.1704   0.1704   0.1704   0.5255   0.5255   0.5255   3.0105
     3.0677   5.2765   5.2765   6.0280   6.0280   6.0280   9.6068  22.5047
    22.5047  22.5047  24.0942  24.0942  25.1323  25.1323  25.1323  26.3919
    26.3919  26.3919  31.7845  34.9292  34.9292  34.9292  36.4953  36.4953
    37.1351  37.1351

     Writing output data file Si.save

     init_run     :      0.13s CPU      0.13s WALL (       1 calls)
     electrons    :     68.86s CPU     69.69s WALL (       1 calls)

     Called by init_run:
     wfcinit      :      0.00s CPU      0.00s WALL (       1 calls)
     potinit      :      0.04s CPU      0.04s WALL (       1 calls)

     Called by electrons:
     c_bands      :     68.86s CPU     69.68s WALL (       1 calls)
     v_of_rho     :      0.03s CPU      0.03s WALL (       1 calls)

     Called by c_bands:
     init_us_2    :      0.06s CPU      0.06s WALL (      51 calls)
     cegterg      :     65.07s CPU     65.82s WALL (      77 calls)

     Called by *egterg:
     h_psi        :     42.58s CPU     43.07s WALL (    1347 calls)
     g_psi        :      0.13s CPU      0.13s WALL (    1219 calls)
     cdiaghg      :      5.31s CPU      5.34s WALL (    1270 calls)

     Called by h_psi:
     add_vuspsi   :      1.18s CPU      1.19s WALL (    1347 calls)

     General routines
     calbec       :      1.37s CPU      1.38s WALL (    1347 calls)
     fft          :      0.02s CPU      0.02s WALL (      10 calls)
     fftw         :     37.99s CPU     38.45s WALL (   46496 calls)
     davcio       :      0.01s CPU      0.01s WALL (      51 calls)

     Parallel routines
     fft_scatter  :      0.92s CPU      0.92s WALL (   46506 calls)

     PWSCF        :  1m 9.94s CPU     1m10.94s WALL


   This run was terminated on:  22:33: 1  13Feb2023            

=------------------------------------------------------------------------------=
   JOB DONE.
=------------------------------------------------------------------------------=
