
     Program PWSCF v.5.1 starts on 13Feb2023 at 22:29:54 

     This program is part of the open-source Quantum ESPRESSO suite
     for quantum simulation of materials; please cite
         "P. Giannozzi et al., J. Phys.:Condens. Matter 21 395502 (2009);
          URL http://www.quantum-espresso.org", 
     in publications or presentations arising from this work. More details at
     http://www.quantum-espresso.org/quote

     Parallel version (MPI), running on     1 processors
     Waiting for input...
     Reading input from standard input

     Current dimensions of program PWSCF are:
     Max number of different atomic species (ntypx) = 10
     Max number of k-points (npk) =  40000
     Max angular momentum in pseudopotentials (lmaxx) =  3

     Atomic positions and unit cell read from directory:
     ./out/Si.save/

               file Si.pbe-mt_fhi.UPF: wavefunction(s)  4f renormalized

     Subspace diagonalization in iterative solution of the eigenvalue problem:
     a serial algorithm will be used


     G-vector sticks info
     --------------------
     sticks:   dense  smooth     PW     G-vecs:    dense   smooth      PW
     Sum         733     733    223                12939    12939    2229



     bravais-lattice index     =            2
     lattice parameter (alat)  =      10.2623  a.u.
     unit-cell volume          =     270.1967 (a.u.)^3
     number of atoms/cell      =            2
     number of atomic types    =            1
     number of electrons       =        68.00
     number of Kohn-Sham states=           34
     kinetic-energy cutoff     =      50.0000  Ry
     charge density cutoff     =     200.0000  Ry
     Exchange-correlation      = PBE ( 1  4  3  4 0)

     celldm(1)=  10.262347  celldm(2)=   0.000000  celldm(3)=   0.000000
     celldm(4)=   0.000000  celldm(5)=   0.000000  celldm(6)=   0.000000

     crystal axes: (cart. coord. in units of alat)
               a(1) = (  -0.500000   0.000000   0.500000 )  
               a(2) = (   0.000000   0.500000   0.500000 )  
               a(3) = (  -0.500000   0.500000   0.000000 )  

     reciprocal axes: (cart. coord. in units 2 pi/alat)
               b(1) = ( -1.000000 -1.000000  1.000000 )  
               b(2) = (  1.000000  1.000000  1.000000 )  
               b(3) = ( -1.000000  1.000000 -1.000000 )  


     PseudoPot. # 1 for Si read from file:
     /home/acedemo/psudo/Si.pbe-mt_fhi.UPF
     MD5 check sum: 259057c2adf9952f9ced37ae3d9e311d
     Pseudo is Norm-conserving, Zval =  4.0
     Generated using FHI98PP, converted with fhi2upf.x v.5.0.2
     Using radial grid of  495 points,  3 beta functions with: 
                l(1) =   0
                l(2) =   1
                l(3) =   3

     atomic species   valence    mass     pseudopotential
        Si             4.00    28.08550     Si( 1.00)

     48 Sym. Ops., with inversion, found (24 have fractional translation)



   Cartesian axes

     site n.     atom                  positions (alat units)
         1           Si  tau(   1) = (   0.0000000   0.0000000   0.0000000  )
         2           Si  tau(   2) = (   0.2500000   0.2500000   0.2500000  )

     number of k points=    72 (tetrahedron method)
                       cart. coord. in units 2pi/alat
        k(    1) = (   0.0000000   0.0000000   0.0000000), wk =   0.0011574
        k(    2) = (  -0.0833333   0.0833333  -0.0833333), wk =   0.0092593
        k(    3) = (  -0.1666667   0.1666667  -0.1666667), wk =   0.0092593
        k(    4) = (  -0.2500000   0.2500000  -0.2500000), wk =   0.0092593
        k(    5) = (  -0.3333333   0.3333333  -0.3333333), wk =   0.0092593
        k(    6) = (  -0.4166667   0.4166667  -0.4166667), wk =   0.0092593
        k(    7) = (   0.5000000  -0.5000000   0.5000000), wk =   0.0046296
        k(    8) = (   0.0000000   0.1666667   0.0000000), wk =   0.0069444
        k(    9) = (  -0.0833333   0.2500000  -0.0833333), wk =   0.0277778
        k(   10) = (  -0.1666667   0.3333333  -0.1666667), wk =   0.0277778
        k(   11) = (  -0.2500000   0.4166667  -0.2500000), wk =   0.0277778
        k(   12) = (  -0.3333333   0.5000000  -0.3333333), wk =   0.0277778
        k(   13) = (   0.5833333  -0.4166667   0.5833333), wk =   0.0277778
        k(   14) = (   0.5000000  -0.3333333   0.5000000), wk =   0.0277778
        k(   15) = (   0.4166667  -0.2500000   0.4166667), wk =   0.0277778
        k(   16) = (   0.3333333  -0.1666667   0.3333333), wk =   0.0277778
        k(   17) = (   0.2500000  -0.0833333   0.2500000), wk =   0.0277778
        k(   18) = (   0.1666667  -0.0000000   0.1666667), wk =   0.0138889
        k(   19) = (   0.0000000   0.3333333   0.0000000), wk =   0.0069444
        k(   20) = (  -0.0833333   0.4166667  -0.0833333), wk =   0.0277778
        k(   21) = (  -0.1666667   0.5000000  -0.1666667), wk =   0.0277778
        k(   22) = (  -0.2500000   0.5833333  -0.2500000), wk =   0.0277778
        k(   23) = (   0.6666667  -0.3333333   0.6666667), wk =   0.0277778
        k(   24) = (   0.5833333  -0.2500000   0.5833333), wk =   0.0277778
        k(   25) = (   0.5000000  -0.1666667   0.5000000), wk =   0.0277778
        k(   26) = (   0.4166667  -0.0833333   0.4166667), wk =   0.0277778
        k(   27) = (   0.3333333   0.0000000   0.3333333), wk =   0.0138889
        k(   28) = (   0.0000000   0.5000000   0.0000000), wk =   0.0069444
        k(   29) = (  -0.0833333   0.5833333  -0.0833333), wk =   0.0277778
        k(   30) = (  -0.1666667   0.6666667  -0.1666667), wk =   0.0277778
        k(   31) = (   0.7500000  -0.2500000   0.7500000), wk =   0.0277778
        k(   32) = (   0.6666667  -0.1666667   0.6666667), wk =   0.0277778
        k(   33) = (   0.5833333  -0.0833333   0.5833333), wk =   0.0277778
        k(   34) = (   0.5000000   0.0000000   0.5000000), wk =   0.0138889
        k(   35) = (   0.0000000   0.6666667   0.0000000), wk =   0.0069444
        k(   36) = (  -0.0833333   0.7500000  -0.0833333), wk =   0.0277778
        k(   37) = (   0.8333333  -0.1666667   0.8333333), wk =   0.0277778
        k(   38) = (   0.7500000  -0.0833333   0.7500000), wk =   0.0277778
        k(   39) = (   0.6666667   0.0000000   0.6666667), wk =   0.0138889
        k(   40) = (   0.0000000   0.8333333   0.0000000), wk =   0.0069444
        k(   41) = (   0.9166667  -0.0833333   0.9166667), wk =   0.0277778
        k(   42) = (   0.8333333   0.0000000   0.8333333), wk =   0.0138889
        k(   43) = (   0.0000000  -1.0000000   0.0000000), wk =   0.0034722
        k(   44) = (  -0.1666667   0.3333333   0.0000000), wk =   0.0277778
        k(   45) = (  -0.2500000   0.4166667  -0.0833333), wk =   0.0555556
        k(   46) = (  -0.3333333   0.5000000  -0.1666667), wk =   0.0555556
        k(   47) = (   0.5833333  -0.4166667   0.7500000), wk =   0.0555556
        k(   48) = (   0.5000000  -0.3333333   0.6666667), wk =   0.0277778
        k(   49) = (  -0.1666667   0.5000000   0.0000000), wk =   0.0277778
        k(   50) = (  -0.2500000   0.5833333  -0.0833333), wk =   0.0555556
        k(   51) = (   0.6666667  -0.3333333   0.8333333), wk =   0.0555556
        k(   52) = (   0.5833333  -0.2500000   0.7500000), wk =   0.0555556
        k(   53) = (   0.5000000  -0.1666667   0.6666667), wk =   0.0555556
        k(   54) = (   0.4166667  -0.0833333   0.5833333), wk =   0.0555556
        k(   55) = (   0.3333333   0.0000000   0.5000000), wk =   0.0277778
        k(   56) = (  -0.1666667   0.6666667  -0.0000000), wk =   0.0277778
        k(   57) = (   0.7500000  -0.2500000   0.9166667), wk =   0.0555556
        k(   58) = (   0.6666667  -0.1666667   0.8333333), wk =   0.0555556
        k(   59) = (   0.5833333  -0.0833333   0.7500000), wk =   0.0555556
        k(   60) = (   0.5000000   0.0000000   0.6666667), wk =   0.0277778
        k(   61) = (   0.8333333  -0.1666667   1.0000000), wk =   0.0277778
        k(   62) = (   0.7500000  -0.0833333   0.9166667), wk =   0.0555556
        k(   63) = (   0.6666667   0.0000000   0.8333333), wk =   0.0277778
        k(   64) = (  -0.1666667  -1.0000000   0.0000000), wk =   0.0138889
        k(   65) = (   0.6666667  -0.3333333   1.0000000), wk =   0.0277778
        k(   66) = (   0.5833333  -0.2500000   0.9166667), wk =   0.0555556
        k(   67) = (   0.5000000  -0.1666667   0.8333333), wk =   0.0277778
        k(   68) = (   0.6666667  -0.1666667   1.0000000), wk =   0.0277778
        k(   69) = (   0.5833333  -0.0833333   0.9166667), wk =   0.0555556
        k(   70) = (   0.5000000   0.0000000   0.8333333), wk =   0.0277778
        k(   71) = (  -0.3333333  -1.0000000   0.0000000), wk =   0.0138889
        k(   72) = (  -0.5000000  -1.0000000   0.0000000), wk =   0.0069444

     Dense  grid:    12939 G-vectors     FFT dimensions: (  36,  36,  36)

     Largest allocated arrays     est. size (Mb)     dimensions
        Kohn-Sham Wavefunctions         0.85 Mb     (    1639,   34)
        NL pseudopotentials             0.55 Mb     (    1639,   22)
        Each V/rho on FFT grid          0.71 Mb     (   46656)
        Each G-vector array             0.10 Mb     (   12939)
        G-vector shells                 0.00 Mb     (     180)
     Largest temporary arrays     est. size (Mb)     dimensions
        Auxiliary wavefunctions         3.40 Mb     (    1639,  136)
        Each subspace H/S matrix        0.28 Mb     (     136,  136)
        Each <psi_i|beta_j> matrix      0.01 Mb     (      22,   34)

     The potential is recalculated from file :
     ./out/Si.save/charge-density.dat

     Starting wfc are   32 randomized atomic wfcs +    2 random wfc

     Band Structure Calculation
     Davidson diagonalization with overlap

     ethr =  2.35E-12,  avg # of iterations = 22.8

     Warning: ef = 37.132049 is above the highest band at k-point   2
              e  =  36.023592

     Warning: ef = 37.132049 is above the highest band at k-point   3
              e  =  34.634114

     Warning: ef = 37.132049 is above the highest band at k-point   4
              e  =  35.169915

     Warning: ef = 37.132049 is above the highest band at k-point   5
              e  =  33.985852

     Warning: ef = 37.132049 is above the highest band at k-point   6
              e  =  32.891576

     Warning: ef = 37.132049 is above the highest band at k-point   7
              e  =  31.925238

     Warning: ef = 37.132049 is above the highest band at k-point   8
              e  =  36.850177

     Warning: ef = 37.132049 is above the highest band at k-point   9
              e  =  35.715319

     Warning: ef = 37.132049 is above the highest band at k-point  10
              e  =  35.219503

     Warning: ef = 37.132049 is above the highest band at k-point  11
              e  =  35.301161

     Warning: ef = 37.132049 is above the highest band at k-point  12
              e  =  34.327866

     Warning: ef = 37.132049 is above the highest band at k-point  13
              e  =  33.375713

     Warning: ef = 37.132049 is above the highest band at k-point  14
              e  =  33.846305

     Warning: ef = 37.132049 is above the highest band at k-point  15
              e  =  34.831983

     Warning: ef = 37.132049 is above the highest band at k-point  16
              e  =  35.203414

     Warning: ef = 37.132049 is above the highest band at k-point  17
              e  =  35.065260

     Warning: ef = 37.132049 is above the highest band at k-point  18
              e  =  35.477289

     Warning: ef = 37.132049 is above the highest band at k-point  19
              e  =  36.344808

     Warning: ef = 37.132049 is above the highest band at k-point  20
              e  =  35.569475

     Warning: ef = 37.132049 is above the highest band at k-point  21
              e  =  35.265516

     Warning: ef = 37.132049 is above the highest band at k-point  22
              e  =  34.676760

     Warning: ef = 37.132049 is above the highest band at k-point  23
              e  =  34.457989

     Warning: ef = 37.132049 is above the highest band at k-point  24
              e  =  34.436503

     Warning: ef = 37.132049 is above the highest band at k-point  25
              e  =  34.380168

     Warning: ef = 37.132049 is above the highest band at k-point  26
              e  =  34.335042

     Warning: ef = 37.132049 is above the highest band at k-point  27
              e  =  34.905596

     Warning: ef = 37.132049 is above the highest band at k-point  28
              e  =  34.933286

     Warning: ef = 37.132049 is above the highest band at k-point  29
              e  =  35.589862

     Warning: ef = 37.132049 is above the highest band at k-point  30
              e  =  35.187966

     Warning: ef = 37.132049 is above the highest band at k-point  31
              e  =  35.482736

     Warning: ef = 37.132049 is above the highest band at k-point  32
              e  =  35.912238

     Warning: ef = 37.132049 is above the highest band at k-point  33
              e  =  34.835904

     Warning: ef = 37.132049 is above the highest band at k-point  34
              e  =  34.275772

     Warning: ef = 37.132049 is above the highest band at k-point  35
              e  =  36.477256

     Warning: ef = 37.132049 is above the highest band at k-point  36
              e  =  34.974215

     Warning: ef = 37.132049 is above the highest band at k-point  37
              e  =  34.053104

     Warning: ef = 37.132049 is above the highest band at k-point  38
              e  =  33.856525

     Warning: ef = 37.132049 is above the highest band at k-point  39
              e  =  33.339040

     Warning: ef = 37.132049 is above the highest band at k-point  40
              e  =  35.047911

     Warning: ef = 37.132049 is above the highest band at k-point  41
              e  =  34.224564

     Warning: ef = 37.132049 is above the highest band at k-point  42
              e  =  33.574420

     Warning: ef = 37.132049 is above the highest band at k-point  43
              e  =  33.758488

     Warning: ef = 37.132049 is above the highest band at k-point  44
              e  =  35.528396

     Warning: ef = 37.132049 is above the highest band at k-point  45
              e  =  34.640984

     Warning: ef = 37.132049 is above the highest band at k-point  46
              e  =  34.746640

     Warning: ef = 37.132049 is above the highest band at k-point  47
              e  =  33.948054

     Warning: ef = 37.132049 is above the highest band at k-point  48
              e  =  34.417130

     Warning: ef = 37.132049 is above the highest band at k-point  49
              e  =  35.508772

     Warning: ef = 37.132049 is above the highest band at k-point  50
              e  =  35.377643

     Warning: ef = 37.132049 is above the highest band at k-point  51
              e  =  35.751452

     Warning: ef = 37.132049 is above the highest band at k-point  52
              e  =  36.501873

     Warning: ef = 37.132049 is above the highest band at k-point  53
              e  =  36.231517

     Warning: ef = 37.132049 is above the highest band at k-point  54
              e  =  35.591703

     Warning: ef = 37.132049 is above the highest band at k-point  55
              e  =  34.818475

     Warning: ef = 37.132049 is above the highest band at k-point  56
              e  =  35.265084

     Warning: ef = 37.132049 is above the highest band at k-point  57
              e  =  35.706950

     Warning: ef = 37.132049 is above the highest band at k-point  58
              e  =  35.913917

     Warning: ef = 37.132049 is above the highest band at k-point  59
              e  =  35.632061

     Warning: ef = 37.132049 is above the highest band at k-point  60
              e  =  35.612402

     Warning: ef = 37.132049 is above the highest band at k-point  61
              e  =  34.174847

     Warning: ef = 37.132049 is above the highest band at k-point  62
              e  =  35.167433

     Warning: ef = 37.132049 is above the highest band at k-point  63
              e  =  35.242020

     Warning: ef = 37.132049 is above the highest band at k-point  64
              e  =  33.968539

     Warning: ef = 37.132049 is above the highest band at k-point  65
              e  =  36.342485

     Warning: ef = 37.132049 is above the highest band at k-point  66
              e  =  36.989171

     Warning: ef = 37.132049 is above the highest band at k-point  67
              e  =  36.605226

     Warning: ef = 37.132049 is above the highest band at k-point  68
              e  =  36.363092

     Warning: ef = 37.132049 is above the highest band at k-point  69
              e  =  36.482704

     Warning: ef = 37.132049 is above the highest band at k-point  70
              e  =  36.661340

     Warning: ef = 37.132049 is above the highest band at k-point  71
              e  =  34.889539

     Warning: ef = 37.132049 is above the highest band at k-point  72
              e  =  36.699303

     total cpu time spent up to now is      103.4 secs

     End of band structure calculation

          k = 0.0000 0.0000 0.0000 (  1639 PWs)   bands (ev):

   -13.7082   0.1704   0.1704   0.1704   0.5255   0.5255   0.5255   3.0105
     3.0677   5.2765   5.2765   6.0280   6.0280   6.0280   9.6068  22.5047
    22.5047  22.5047  24.0942  24.0942  25.1323  25.1323  25.1323  26.3919
    26.3919  26.3919  31.7845  34.9292  34.9292  34.9292  36.4953  36.4953
    37.1351  37.1351

          k =-0.0833 0.0833-0.0833 (  1612 PWs)   bands (ev):

   -13.6040  -1.5273  -0.3607  -0.3607   1.0915   1.2037   1.2037   3.3667
     3.8962   4.1792   4.1792   5.8917   7.3811   7.3811  10.2445  21.1152
    21.1152  21.4077  23.5565  23.5565  25.4133  25.4133  25.8353  26.4953
    28.3247  28.3247  31.9620  33.8773  34.3744  34.3744  35.2550  35.2550
    36.0236  36.0236

          k =-0.1667 0.1667-0.1667 (  1591 PWs)   bands (ev):

   -13.2915  -3.5187  -0.8604  -0.8604   0.9081   1.8883   1.8883   3.3211
     3.3211   3.5034   4.9606   7.0654   9.2618   9.2618  11.7005  18.4905
    18.4905  19.4414  23.6852  23.6852  25.6778  25.6778  26.6500  26.8045
    30.6527  30.8796  30.8796  32.3336  32.3336  33.4614  33.4614  33.9011
    34.6341  34.6341

          k =-0.2500 0.2500-0.2500 (  1618 PWs)   bands (ev):

   -12.7716  -5.3979  -1.1856  -1.1856   0.6991   1.4371   1.4371   2.8845
     4.0048   4.0048   6.0237   9.5930  11.3620  11.3620  13.5471  15.8708
    15.8708  17.3500  24.0186  24.0186  26.0533  26.0533  26.4566  27.3155
    28.5292  28.5292  28.7899  31.8008  31.8008  32.3880  32.3930  32.3930
    34.5527  35.1699

          k =-0.3333 0.3333-0.3333 (  1616 PWs)   bands (ev):

   -12.0457  -7.1097  -1.3432  -1.3432   0.6319   0.6916   0.6916   2.1500
     5.4077   5.4077   7.3422  12.3794  13.3028  13.3028  13.7672  13.7672
    15.3332  15.6987  24.1161  24.1161  24.3888  25.5218  25.5218  26.8045
    26.8045  27.1268  28.0152  30.4687  30.5672  30.5672  31.1093  31.1093
    33.4114  33.9859

          k =-0.4167 0.4167-0.4167 (  1616 PWs)   bands (ev):

   -11.1174  -8.6337  -1.3696  -1.3696   0.1449   0.1449   0.7376   1.5234
     7.0682   7.0682   8.7377  11.1111  11.1111  13.2119  15.6589  16.1654
    16.1654  17.9582  21.7946  21.8612  21.8612  24.1041  25.2881  25.2881
    27.4198  27.4198  28.8484  29.4563  29.4563  30.0576  30.0576  30.8275
    31.9427  32.8916

          k = 0.5000-0.5000 0.5000 (  1622 PWs)   bands (ev):

   -10.1128  -9.8375  -1.3538  -1.3538  -0.0644  -0.0644   0.9531   1.1296
     8.6437   8.6437   9.3343   9.3343   9.5906  12.3014  17.8938  18.2967
    18.2967  19.0260  19.5889  19.5889  20.5762  21.7079  25.4687  25.4687
    27.9700  27.9700  28.7726  28.7726  29.4150  29.6202  29.6202  31.1642
    31.6150  31.9252

          k = 0.0000 0.1667 0.0000 (  1615 PWs)   bands (ev):

   -13.5693  -1.0841  -1.0841  -0.4264  -0.1326   1.9965   1.9965   2.5864
     3.9735   4.1738   5.4162   6.2094   6.2094   7.7243  10.6640  20.7607
    20.7607  21.9196  22.6326  22.8473  25.6673  25.6673  25.8084  27.9350
    27.9350  28.7432  32.0544  33.4326  33.4326  34.2989  34.7862  35.0148
    36.1313  36.8502

          k =-0.0833 0.2500-0.0833 (  1599 PWs)   bands (ev):

   -13.3262  -2.7909  -1.6400  -0.8048   0.3050   1.4951   2.2503   2.8185
     4.6090   4.6373   5.1251   6.6128   7.6905   8.9778  12.1032  18.4423
    18.8963  21.4092  21.6315  22.5975  25.3053  25.9142  27.3732  28.4666
    29.4935  31.1443  31.2019  31.9985  32.0378  33.0101  33.3300  34.3221
    34.8054  35.7153

          k =-0.1667 0.3333-0.1667 (  1610 PWs)   bands (ev):

   -12.8754  -4.7031  -2.0081  -1.2014   0.1221   1.7631   2.0491   2.7541
     4.1855   4.7734   6.2197   8.7995   9.7011  10.8417  13.9456  15.7736
    16.5565  19.2871  21.9509  22.8615  25.1928  26.2959  27.7469  28.3720
    28.8172  29.7174  30.3126  30.6620  30.8703  32.5635  33.3113  33.4838
    34.1560  35.2195

          k =-0.2500 0.4167-0.2500 (  1606 PWs)   bands (ev):

   -12.2182  -6.4703  -2.1848  -1.5293  -0.5798   1.8889   1.9751   2.7377
     3.8121   6.0373   7.5219  11.5166  11.9175  13.0031  13.2601  14.2538
    16.0096  17.1437  22.4229  23.3205  23.7807  26.2655  26.5303  26.7784
    27.4573  28.4879  28.6135  29.7069  29.7080  31.1900  32.0332  32.0953
    34.5900  35.3012

          k =-0.3333 0.5000-0.3333 (  1616 PWs)   bands (ev):

   -11.3569  -8.0573  -2.1717  -1.9379  -0.8741   1.2727   1.8632   2.5404
     4.9806   7.6138   8.9216  10.8884  11.9830  14.2059  14.3864  15.1561
    15.6256  18.3158  21.0871  22.7577  23.1568  24.0277  24.5341  25.6210
    26.7854  27.3780  27.6029  28.6302  30.2264  30.5746  30.8864  31.9547
    34.1711  34.3279

          k = 0.5833-0.4167 0.5833 (  1615 PWs)   bands (ev):

   -10.3066  -9.4389  -2.3761  -1.9756  -0.7592   0.7567   1.7536   2.3934
     6.6793   8.5651   9.4862   9.5992  10.8106  13.2359  16.8949  16.9726
    18.1244  18.9135  19.7335  21.0345  21.1038  22.7267  23.7987  24.6975
    26.5785  26.6557  28.2551  28.2875  29.7409  30.0684  30.9586  32.7057
    33.3384  33.3757

          k = 0.5000-0.3333 0.5000 (  1616 PWs)   bands (ev):

   -10.6738  -9.0054  -2.6928  -1.6132  -0.3777   0.4605   1.5075   2.6936
     6.7086   7.4949   9.0234  10.4293  11.5188  13.3570  15.3429  16.8605
    18.0317  19.1610  20.1141  20.5783  21.7153  23.5935  23.8809  24.6621
    26.7502  26.8689  27.9454  28.2956  29.8738  30.3953  30.8676  32.2658
    33.4881  33.8463

          k = 0.4167-0.2500 0.4167 (  1611 PWs)   bands (ev):

   -11.6664  -7.5493  -2.8361  -1.1272   0.2160   0.4251   1.3690   3.1863
     4.9689   6.0623   8.9265  11.0775  12.8971  13.5017  13.7133  15.3805
    15.6382  17.0720  22.5863  22.6613  23.3887  23.8492  25.4511  26.1695
    27.0867  27.5999  28.1922  28.3138  30.3189  30.9419  31.2007  31.6422
    34.4155  34.8320

          k = 0.3333-0.1667 0.3333 (  1605 PWs)   bands (ev):

   -12.4601  -5.8999  -2.7913  -0.6066   0.7138   0.9852   1.4017   3.4614
     3.5021   4.9958   7.4826  10.5269  10.7172  13.2436  13.4685  14.8606
    16.1459  17.2801  22.3226  23.0170  25.2980  25.8948  26.6801  26.9685
    28.5178  28.8905  29.1976  29.5695  30.1969  31.9333  32.1585  32.5796
    35.1881  35.2034

          k = 0.2500-0.0833 0.2500 (  1600 PWs)   bands (ev):

   -13.0487  -4.0771  -2.5542  -0.1199   1.1650   1.5123   1.9575   2.4210
     2.7835   5.2430   6.1594   7.9601   8.5668  11.0808  12.8980  15.9878
    18.6690  19.2984  21.8933  22.7529  25.4019  26.0802  28.1201  28.4809
    29.4338  29.8255  30.7320  31.0560  31.7823  32.4303  33.2706  33.9096
    34.6307  35.0653

          k = 0.1667-0.0000 0.1667 (  1592 PWs)   bands (ev):

   -13.4303  -2.1470  -2.1076   0.2565   0.7935   1.6153   1.8252   2.9067
     2.9655   4.8581   5.1936   6.4478   7.0670   9.1170  11.2415  18.6275
    20.8642  20.9103  22.0348  22.9201  25.2385  25.7931  27.1460  28.2867
    28.5315  30.3000  31.8415  32.5005  33.1570  33.4990  33.7606  34.6404
    34.8363  35.4773

          k = 0.0000 0.3333 0.0000 (  1607 PWs)   bands (ev):

   -13.1527  -2.2565  -2.2565  -1.4933  -1.1646   0.1136   3.7686   3.7686
     5.7417   5.7447   5.8355   6.8021   6.8021   8.6640  13.5743  18.2325
    18.2325  19.1284  20.9484  23.0150  26.0585  26.1031  26.1031  29.8103
    29.8103  30.6898  31.1469  31.3224  31.3224  31.8549  32.8321  35.3768
    35.4332  36.3448

          k =-0.0833 0.4167-0.0833 (  1616 PWs)   bands (ev):

   -12.7714  -3.8415  -2.6850  -1.9250  -1.1624  -0.3320   4.0568   4.2070
     5.7566   5.7788   6.9029   8.2878   8.3459   9.7975  15.3993  15.8507
    16.4629  19.0643  20.4906  22.1458  25.0220  26.4310  27.2779  27.8895
    28.1345  29.1793  30.6852  31.5182  31.7561  32.8594  32.8637  33.9287
    35.1149  35.5695

          k =-0.1667 0.5000-0.1667 (  1611 PWs)   bands (ev):

   -12.1834  -5.6387  -2.9195  -2.6012  -1.6435   0.8642   3.5349   3.9406
     5.1007   6.8242   8.1964  10.4534  10.8412  11.7473  13.2774  14.3032
    17.4318  19.5311  19.6880  21.1877  23.2389  25.9170  26.4545  26.9449
    27.1809  28.1021  29.7097  30.0271  30.9982  32.2564  32.6342  33.0138
    33.6840  35.2655

          k =-0.2500 0.5833-0.2500 (  1610 PWs)   bands (ev):

   -11.3905  -7.2807  -3.3328  -2.9587  -1.7629   2.2518   2.7810   3.8309
     4.6327   8.3202   9.5314  10.8509  12.1026  12.8375  13.5214  14.2963
    17.6629  19.6944  20.1325  20.2426  21.8613  24.4204  25.0261  25.3690
    26.5462  27.1999  27.6397  28.4308  29.9179  31.3225  32.4814  33.2274
    33.6055  34.6768

          k = 0.6667-0.3333 0.6667 (  1607 PWs)   bands (ev):

   -10.3990  -8.7334  -3.9335  -2.8035  -1.6257   2.1825   2.9459   4.3727
     4.6820   8.5235   9.5738  10.1861  11.6517  15.3776  15.4536  15.7311
    17.3921  17.8973  20.6662  21.0504  22.3433  22.4267  23.5576  24.0668
    24.2849  25.0567  28.2050  28.3563  29.4970  30.2300  32.0546  33.8001
    34.1307  34.4580

          k = 0.5833-0.2500 0.5833 (  1602 PWs)   bands (ev):

   -10.0328  -9.1654  -4.3541  -2.4571  -1.2730   1.7747   2.7673   4.7175
     6.1461   6.5429   8.0846  12.0952  12.5580  14.2178  14.6730  18.0349
    18.0914  18.6320  20.2507  20.6834  21.4145  21.5180  23.1053  23.8378
    24.1376  25.1359  28.4110  28.6131  29.4076  29.9277  32.1952  33.5302
    34.3223  34.4365

          k = 0.5000-0.1667 0.5000 (  1610 PWs)   bands (ev):

   -11.0816  -7.7861  -4.5816  -1.9268  -0.7182   1.5691   2.5931   4.7281
     4.8075   6.3186   8.6683  11.2331  12.4179  14.2246  14.6224  15.8776
    17.7153  18.9133  20.3763  20.9578  21.4336  22.4768  24.2300  24.6506
    25.4438  26.7601  27.9576  28.9563  30.0484  30.8628  32.7114  33.0637
    33.7759  34.3802

          k = 0.4167-0.0833 0.4167 (  1613 PWs)   bands (ev):

   -11.9419  -6.2028  -4.6115  -1.2318   0.0284   1.5704   2.5443   3.1340
     3.9211   6.4070   9.1512  10.5886  10.9518  11.8936  15.2961  16.5859
    16.6596  17.5342  19.8574  21.1940  24.2467  24.3356  25.9484  26.1030
    26.7621  27.3785  28.4082  30.7963  31.1662  32.0124  32.6556  32.7893
    33.8097  34.3350

          k = 0.3333 0.0000 0.3333 (  1604 PWs)   bands (ev):

   -12.5984  -4.4589  -4.4271  -0.4445   0.9474   1.5972   2.0188   2.4964
     2.8015   6.7360   7.4613   9.0350   9.2680  13.1089  13.3934  14.6797
    18.5877  18.8953  19.7757  21.4426  25.3829  26.2573  27.5047  27.7475
    27.9162  28.0999  30.5392  31.3930  31.8048  32.1311  32.3211  33.6829
    34.2230  34.9056

          k = 0.0000 0.5000 0.0000 (  1612 PWs)   bands (ev):

   -12.4598  -3.1765  -3.1765  -2.9453  -2.0534  -1.7954   5.4837   5.4837
     6.5339   7.7544   7.8271   7.9894   7.9894   9.5177  15.8305  15.8305
    16.5319  17.1736  19.0140  23.6419  24.7866  26.1623  26.1623  26.7316
    26.7316  27.0413  29.7971  31.5789  33.6279  34.3612  34.3612  34.6219
    34.9333  34.9333

          k =-0.0833 0.5833-0.0833 (  1617 PWs)   bands (ev):

   -11.9414  -4.6553  -3.8257  -3.4743  -2.2902  -1.1928   5.2782   5.7487
     7.2981   7.5405   9.0454   9.4864  10.4467  10.6741  13.4873  14.2291
    16.6699  18.6616  19.1458  22.4712  23.0230  24.3742  24.5165  25.8787
    27.1563  27.5290  29.4980  31.0418  32.1409  33.2410  33.5003  34.2994
    34.3147  35.5899

          k =-0.1667 0.6667-0.1667 (  1620 PWs)   bands (ev):

   -11.2177  -6.3163  -4.7033  -3.5757  -2.4150   0.2298   4.5111   5.4449
     6.9337   9.0712  10.3001  10.9392  11.7111  12.1658  12.6337  13.4452
    17.2633  18.8158  19.6704  20.9434  21.5923  22.7884  23.2513  25.2082
    27.2477  27.7393  27.9168  29.1000  30.4892  32.0333  32.8973  33.4898
    33.7028  35.1880

          k = 0.7500-0.2500 0.7500 (  1617 PWs)   bands (ev):

   -10.2926  -7.8233  -5.4001  -3.4806  -2.3247   1.8411   3.8545   5.0317
     6.8386   8.6411   9.8086  10.8961  12.4079  14.0549  14.4970  16.2415
    17.0229  17.9381  18.4253  20.5477  21.5127  21.6466  23.1765  23.8728
    26.0331  26.2061  27.1425  28.4984  28.8728  30.9087  32.0752  33.0990
    34.4512  35.4827

          k = 0.6667-0.1667 0.6667 (  1607 PWs)   bands (ev):

    -9.2944  -9.0164  -5.9017  -3.1900  -2.0282   3.3761   3.3936   4.8991
     6.5730   6.6909   8.4054  12.7846  13.3967  14.1415  16.4401  16.6797
    17.4781  18.3623  19.2395  19.5809  20.8494  21.4941  21.7008  23.2390
    24.0338  26.2004  26.7238  28.9821  29.0177  30.2550  31.8275  32.6431
    34.0361  35.9122

          k = 0.5833-0.0833 0.5833 (  1611 PWs)   bands (ev):

   -10.2939  -7.8186  -6.2035  -2.7073  -1.5308   3.0906   3.8980   4.6869
     5.3124   6.4529   8.1514  11.0722  14.6056  14.8280  15.7769  16.5337
    18.0287  19.1540  19.2324  20.5035  20.9183  21.0236  21.7931  22.3649
    24.2752  27.0135  27.2919  28.5287  30.1434  30.8909  32.2525  32.3920
    33.8612  34.8359

          k = 0.5000 0.0000 0.5000 (  1604 PWs)   bands (ev):

   -11.2185  -6.3182  -6.2901  -2.0421  -0.8398   2.9356   3.0796   3.7172
     4.1618   7.9001   8.7859   9.0425  13.1886  13.2962  16.5271  17.1366
    17.7174  17.9073  18.9128  19.8784  22.5797  22.6155  23.0406  23.9351
    26.7746  27.4734  27.8428  27.9585  31.7529  32.0932  32.5710  32.6912
    33.8437  34.2758

          k = 0.0000 0.6667 0.0000 (  1624 PWs)   bands (ev):

   -11.4927  -5.0069  -3.8364  -3.8364  -2.7092  -2.6547   6.9549   6.9549
     7.5112   9.7138   9.9273   9.9273  10.0424  10.8434  13.6660  13.6660
    14.1864  17.2756  21.0383  22.0849  22.4554  22.4554  23.3893  24.7364
    27.5395  27.5395  29.2937  30.8163  33.0560  33.0560  33.6907  34.0234
    36.0676  36.4773

          k =-0.0833 0.7500-0.0833 (  1618 PWs)   bands (ev):

   -10.8388  -5.9732  -5.1293  -4.0023  -2.8595  -1.7289   6.4331   7.1051
     9.2514   9.4658  11.0207  11.0358  11.7365  11.8224  12.4641  12.8638
    14.5236  17.0698  19.4155  20.7534  21.1889  22.5971  22.8987  24.2395
    27.6988  28.0801  28.4502  31.3422  31.7027  32.2084  32.5255  33.3141
    33.6726  34.9742

          k = 0.8333-0.1667 0.8333 (  1619 PWs)   bands (ev):

    -9.9823  -6.8585  -6.5582  -3.9710  -2.8302  -0.1550   5.7340   6.7151
     8.9393   9.0100  10.4669  11.3097  13.1258  13.4023  13.4648  15.2353
    15.4853  16.4581  18.0766  19.3290  19.8329  22.1517  22.5232  25.0591
    25.5891  28.5918  28.7070  28.8527  29.6612  31.4156  32.4006  32.5312
    33.7825  34.0531

          k = 0.7500-0.0833 0.7500 (  1620 PWs)   bands (ev):

    -8.9395  -8.0958  -7.2598  -3.7427  -2.5965   1.6117   5.1942   6.3006
     6.7982   7.6491  10.1462  13.0046  13.3440  14.7450  15.4957  15.7643
    16.1192  17.8880  18.3937  18.7389  19.3449  20.8584  21.7942  23.3897
    25.7690  26.3437  27.6670  29.3603  29.5680  30.8388  31.6631  32.2998
    32.9597  33.8565

          k = 0.6667 0.0000 0.6667 (  1612 PWs)   bands (ev):

    -9.3110  -7.6653  -7.6253  -3.3196  -2.1615   3.4262   4.8057   4.8791
     5.9874   6.0756  10.0933  10.8791  15.0242  15.8765  16.1860  16.6563
    17.7423  18.2851  18.3808  18.5958  19.8899  20.1193  23.0835  23.1208
    23.2346  24.7368  27.7653  29.1684  30.7427  31.0026  31.4339  32.3241
    32.7026  33.3390

          k = 0.0000 0.8333 0.0000 (  1628 PWs)   bands (ev):

   -10.2549  -6.9933  -4.2332  -4.2332  -3.1072  -3.0919   8.3510   8.3510
     8.7666  11.0904  11.4374  11.4374  11.9104  12.1067  12.7442  12.7442
    13.0941  16.1840  18.9490  18.9490  19.1490  20.2875  24.6579  26.2354
    28.0461  28.5584  28.5584  31.1319  31.5052  31.5052  33.5122  33.6345
    34.5616  35.0479

          k = 0.9167-0.0833 0.9167 (  1622 PWs)   bands (ev):

    -9.4682  -7.8376  -5.4147  -4.2668  -3.1352  -1.9956   7.8050   8.4837
     9.4143   9.9523  10.8389  12.0056  12.5065  12.8449  13.3238  14.1683
    15.1429  16.1008  17.0974  17.4317  18.3618  19.5872  24.8434  26.3698
    27.3710  29.1357  29.3825  30.2658  30.8697  31.4670  31.9972  32.9816
    33.2266  34.2246

          k = 0.8333 0.0000 0.8333 (  1614 PWs)   bands (ev):

    -8.4920  -8.4795  -6.8193  -4.1029  -2.9669  -0.2840   7.1983   7.2286
     8.0226   8.1912  12.4484  12.6403  13.0395  13.3818  14.3265  14.8840
    15.6699  16.6475  16.9610  17.6056  19.0605  19.9670  23.2172  23.9600
    28.1465  28.5528  28.6795  29.5269  29.9681  30.7146  31.7914  32.0115
    32.5925  33.5744

          k = 0.0000-1.0000 0.0000 (  1604 PWs)   bands (ev):

    -8.7517  -8.7517  -4.3656  -4.3656  -3.2371  -3.2371   9.8268   9.8268
     9.9014   9.9014  10.2990  10.2990  12.1073  12.1073  15.0045  15.0045
    15.5846  15.5846  16.2371  16.2371  17.8703  17.8703  26.5821  26.5821
    29.4112  29.4112  29.5389  29.5389  30.4638  30.4638  33.4689  33.4689
    33.7585  33.7585

          k =-0.1667 0.3333 0.0000 (  1603 PWs)   bands (ev):

   -13.0140  -3.3008  -3.2640  -0.6131   0.0713   0.5741   2.9158   3.1336
     3.8233   6.1726   6.5174   7.4179   7.9004  10.3382  13.7591  16.0061
    18.3569  20.0104  21.2697  22.0315  24.2421  27.5100  27.9277  28.5165
    29.1281  30.2588  30.8464  31.4542  31.4903  32.2816  32.8555  33.1385
    35.1145  35.5284

          k =-0.2500 0.4167-0.0833 (  1607 PWs)   bands (ev):

   -12.4946  -5.1369  -3.5831  -1.3293  -0.1153   1.2694   2.3213   3.1302
     4.4732   5.9567   7.9068   9.3458   9.8827  12.3236  13.4548  15.7096
    16.4795  19.3724  20.0669  22.2819  23.8062  25.9528  27.1803  27.6034
    28.5133  29.5040  29.6704  30.2863  30.9410  31.7250  32.4968  33.3194
    34.1854  34.6410

          k =-0.3333 0.5000-0.1667 (  1604 PWs)   bands (ev):

   -11.7695  -6.8414  -3.6903  -2.1213  -0.3011   1.3274   2.8316   3.0815
     4.7378   6.4053   9.4118  11.0130  11.4629  12.7037  14.1932  14.6534
    17.3035  17.9857  20.4345  22.0469  22.8476  24.5822  25.2997  25.8827
    27.0751  27.6909  28.9329  29.3346  29.7683  31.1966  32.0615  32.9994
    33.7223  34.7466

          k = 0.5833-0.4167 0.7500 (  1612 PWs)   bands (ev):

   -10.8423  -8.3619  -3.6107  -2.7666  -0.2959   0.7713   3.0735   3.8735
     4.8904   7.7208   8.9522  10.8971  12.2001  13.7635  15.0611  16.1013
    17.0216  19.3905  20.1014  20.9778  22.1894  23.1387  23.7715  24.3155
    25.6241  26.6272  26.9863  28.4553  29.6989  31.2656  32.1329  33.2789
    33.7693  33.9481

          k = 0.5000-0.3333 0.6667 (  1602 PWs)   bands (ev):

    -9.8394  -9.5633  -3.4511  -3.1175  -0.2380   0.5210   3.1431   3.8098
     6.2193   6.8797   9.6803  10.0349  12.4350  14.0130  15.8442  16.7801
    18.7419  19.0171  19.9514  20.0260  21.8894  22.4644  23.2596  23.8190
    24.3836  26.1903  27.0529  27.6354  29.9937  31.0802  32.5973  32.9335
    33.6029  34.4171

          k =-0.1667 0.5000 0.0000 (  1617 PWs)   bands (ev):

   -12.3215  -4.2330  -4.1870  -2.6046  -0.7932  -0.7209   3.8165   5.0711
     5.7469   7.3208   7.6546   9.2847   9.5685  11.1487  13.5696  15.9557
    17.3057  17.6773  20.3064  21.9082  23.4503  25.2615  25.7200  27.5039
    27.8903  28.6364  29.6136  30.9215  31.8798  32.1716  33.0820  33.6561
    34.7475  35.5088

          k =-0.2500 0.5833-0.0833 (  1611 PWs)   bands (ev):

   -11.6656  -5.9427  -4.3902  -3.5087  -0.9436   0.5650   3.0411   5.2188
     6.3111   7.3468   9.4295  10.8411  11.1706  12.0712  13.2394  14.2849
    17.6596  19.3117  20.1434  20.7924  21.6577  23.2528  24.9046  26.2707
    26.6400  28.1468  28.8955  29.8449  30.5513  31.2182  32.5592  33.0133
    34.3698  35.3776

          k = 0.6667-0.3333 0.8333 (  1617 PWs)   bands (ev):

   -10.8063  -7.5180  -4.4729  -4.1500  -0.9280   1.8593   2.6085   5.1549
     6.0167   8.2647   9.2169  11.2494  12.2281  12.8010  14.8827  15.7229
    17.8318  18.3095  18.9660  21.4687  21.5410  22.1018  23.8373  24.6522
    25.2165  26.2909  27.7009  28.5029  29.1827  30.7439  31.9410  33.6558
    34.6562  35.7515

          k = 0.5833-0.2500 0.7500 (  1607 PWs)   bands (ev):

    -9.7588  -8.8935  -4.8940  -4.0626  -0.7186   1.6831   3.8468   5.1286
     5.7438   6.7818   9.8498  10.5965  13.5641  14.6459  15.6084  16.2995
    17.7971  18.5086  19.3703  20.0602  21.3964  22.3023  22.4235  23.8107
    24.2545  25.7878  26.5515  27.3297  28.8059  30.9538  31.4999  33.8668
    34.7101  36.5019

          k = 0.5000-0.1667 0.6667 (  1605 PWs)   bands (ev):

   -10.1253  -8.4608  -5.2460  -3.6487  -0.3290   1.3834   4.2190   4.6167
     6.1853   6.3630   8.2928  12.2499  12.8059  14.2726  15.7834  17.2124
    17.5085  18.7673  19.4408  20.3159  21.4428  21.7966  22.5367  22.9784
    24.5564  25.7129  27.5230  27.6854  28.9919  30.8534  31.3097  34.1338
    34.6263  36.2315

          k = 0.4167-0.0833 0.5833 (  1610 PWs)   bands (ev):

   -11.1154  -7.0105  -5.4082  -3.0309   0.2008   1.2839   2.7562   4.3851
     5.7670   7.2214   8.6844  10.2523  12.6093  13.9789  14.7077  16.6971
    17.5814  18.3876  19.9018  20.3163  21.6731  22.3622  23.6107  25.0429
    25.3454  26.4499  28.5181  29.1464  29.8730  30.8545  31.6301  33.7391
    34.7117  35.5917

          k = 0.3333 0.0000 0.5000 (  1606 PWs)   bands (ev):

   -11.9072  -5.3882  -5.3565  -2.2295   0.6888   1.1082   1.7704   4.2272
     4.6125   7.4960   8.2992  10.7721  11.2408  11.3038  14.3733  16.3409
    17.6947  18.0899  19.4305  21.1498  22.9067  24.2132  25.0685  26.0649
    27.1004  29.1459  29.3846  29.6330  30.3515  31.5663  32.2284  33.9055
    34.2015  34.8185

          k =-0.1667 0.6667-0.0000 (  1626 PWs)   bands (ev):

   -11.3551  -5.0680  -4.8521  -4.6276  -1.4384  -1.4238   4.8012   6.8526
     8.0887   8.7737   8.8610  11.3132  11.6312  11.7091  12.1852  13.8137
    15.5401  18.4538  20.8120  21.0987  21.5805  22.8608  23.7832  24.5483
    26.2430  28.1257  29.4209  31.1823  31.3837  31.6433  31.9206  33.7007
    34.5524  35.2651

          k = 0.7500-0.2500 0.9167 (  1621 PWs)   bands (ev):

   -10.5649  -6.4976  -5.6631  -4.8607  -1.4700   0.0651   4.0854   6.9695
     8.1531   8.8929   9.7687  10.9306  12.0119  13.1718  14.0250  14.7287
    15.8353  17.8358  19.1470  19.8334  21.4142  22.7296  23.5065  23.8966
    25.8233  26.1321  28.1828  29.6507  30.2544  30.9693  31.4420  33.7039
    34.7368  35.7070

          k = 0.6667-0.1667 0.8333 (  1616 PWs)   bands (ev):

    -9.5772  -7.9254  -6.3012  -4.7084  -1.3113   1.7299   3.5416   6.5064
     6.7206   8.3992  10.1438  11.3208  13.2917  14.2888  15.3294  16.1948
    16.3764  18.0768  18.6663  18.9100  20.8324  21.3643  22.4680  24.6169
    24.7455  25.7150  26.8766  27.8587  28.8525  30.3636  31.3679  34.2171
    35.3710  35.9139

          k = 0.5833-0.0833 0.7500 (  1614 PWs)   bands (ev):

    -9.2158  -8.3479  -6.7397  -4.3463  -0.9591   2.8405   3.7641   4.7416
     6.3870   7.6586   9.2677  12.0823  13.1746  15.6433  16.1612  16.7168
    17.5152  17.7418  18.8402  19.5672  20.3739  21.4421  21.9519  22.4273
    24.6937  25.4513  26.2228  28.2397  28.7906  30.1995  31.4428  34.1137
    34.7205  35.6321

          k = 0.5000 0.0000 0.6667 (  1621 PWs)   bands (ev):

   -10.2588  -6.9927  -6.9605  -3.7844  -0.4259   2.6392   2.8919   5.2865
     6.1901   6.6882   9.2558   9.9819  14.6315  15.1413  15.5578  16.7703
    17.7492  18.4540  18.6110  20.2888  20.6895  21.7496  21.8102  23.4936
    24.9831  25.8698  25.8881  28.7186  29.8682  30.3424  32.1289  33.1242
    35.2287  35.6124

          k = 0.8333-0.1667 1.0000 (  1617 PWs)   bands (ev):

   -10.1184  -6.8677  -5.2519  -5.2347  -1.8316  -1.8286   6.0148   8.3808
     9.0957   9.8761  10.7643  11.3221  11.8084  13.1112  13.2273  14.1776
    14.6111  16.7985  18.0317  18.2046  20.6899  21.2537  23.6332  25.5200
    26.3050  27.2831  29.9126  30.5652  30.7627  31.0221  31.7713  33.4606
    34.1668  34.1748

          k = 0.7500-0.0833 0.9167 (  1620 PWs)   bands (ev):

    -9.1980  -7.5843  -6.7093  -5.1467  -1.7333  -0.1895   5.3995   6.9470
     8.4526   9.8971  11.2868  11.6681  12.6569  13.7396  14.3881  15.0503
    15.7126  16.9270  17.2226  18.6081  19.6430  21.0239  22.6558  24.1665
    26.5901  27.5194  27.7028  29.1418  29.5990  30.7501  31.5720  33.3810
    33.9014  35.1674

          k = 0.6667 0.0000 0.8333 (  1620 PWs)   bands (ev):

    -8.2614  -8.0740  -7.8559  -4.8468  -1.4404   1.6298   4.9407   4.9458
     7.9778   8.2228  11.3286  11.8623  13.2756  14.3366  15.1753  15.7470
    16.4796  17.9417  18.7149  19.0901  20.2312  20.5354  22.1325  22.2732
    24.6855  26.6680  27.5061  28.6621  28.6903  30.3215  31.3998  33.0537
    34.4264  35.2420

          k =-0.1667-1.0000 0.0000 (  1622 PWs)   bands (ev):

    -8.6175  -8.6175  -5.3821  -5.3821  -1.9631  -1.9631   7.4656   7.4656
     9.9494   9.9494  11.2686  11.2686  13.3744  13.3744  13.9776  13.9776
    15.7155  15.7155  17.3036  17.3036  18.7093  18.7093  24.9956  24.9956
    28.1642  28.1642  29.5070  29.5070  30.9085  30.9085  32.0274  32.0274
    33.9685  33.9685

          k = 0.6667-0.3333 1.0000 (  1610 PWs)   bands (ev):

   -10.9430  -6.0692  -6.0256  -4.4000   0.3824   0.4929   2.3216   6.3299
     7.0510   8.2108   9.2775   9.2832  13.3009  13.4693  14.0452  15.5255
    16.2374  19.3844  20.0809  20.5966  20.8587  21.6984  23.9239  25.0370
    25.5190  26.6039  27.4127  28.1548  29.9944  31.7454  32.1681  33.8021
    33.8284  36.3425

          k = 0.5833-0.2500 0.9167 (  1611 PWs)   bands (ev):

   -10.0194  -7.5520  -5.9592  -5.0906   0.4450   1.4218   2.4032   5.9855
     7.0518   7.8740   9.1750  11.3374  12.5181  14.8336  15.8817  16.6537
    16.7886  17.9710  18.8898  19.2089  21.3511  22.4172  23.4916  24.0217
    24.5129  24.9165  26.3465  26.6925  28.6830  30.3044  32.5598  34.8425
    35.1275  36.9892

          k = 0.5000-0.1667 0.8333 (  1610 PWs)   bands (ev):

    -9.0229  -8.7437  -5.7827  -5.4685   0.4961   1.3096   3.7314   4.5354
     6.9537   7.9161  10.4686  10.7830  13.6357  14.2038  16.1681  16.6558
    17.4686  17.6333  19.5235  20.1208  20.8175  21.3221  21.8583  23.5402
    25.0248  25.0782  26.3659  26.8344  27.0826  29.3917  32.7583  35.6277
    36.2719  36.6052

          k = 0.6667-0.1667 1.0000 (  1618 PWs)   bands (ev):

    -9.7102  -6.6518  -6.4261  -6.2220   0.0681   0.1045   3.4289   6.4613
     8.4982   9.7151  10.4603  10.6513  12.1398  13.8237  15.3291  15.8917
    16.5541  16.7727  17.7987  19.7098  21.2105  22.4906  22.6394  23.9675
    25.0401  25.4440  26.8894  27.1804  28.3800  31.8880  32.5087  34.0919
    34.2896  36.3631

          k = 0.5833-0.0833 0.9167 (  1615 PWs)   bands (ev):

    -8.6704  -7.8246  -7.0077  -6.1673   0.2875   1.7381   3.0147   4.4588
     8.7301   9.9503  10.9717  11.3149  12.7395  13.4798  14.3852  15.4634
    17.5352  18.6591  19.5602  19.9786  20.9459  21.1475  21.8631  23.1210
    23.5322  25.2955  25.6159  26.7188  28.5264  30.1825  32.6437  34.6624
    35.3109  36.4827

          k = 0.5000 0.0000 0.8333 (  1612 PWs)   bands (ev):

    -9.0378  -7.4092  -7.3548  -5.7380   0.6326   2.1909   2.6264   4.1654
     8.3174   8.8472  10.6509  11.0826  12.6660  14.4912  15.1376  16.0377
    18.0124  18.3348  18.8116  20.6096  20.7880  21.1701  22.3054  23.3690
    23.6096  24.7584  25.7445  26.2568  27.7760  31.1045  31.9293  34.5567
    36.4311  36.6613

          k =-0.3333-1.0000 0.0000 (  1618 PWs)   bands (ev):

    -8.2205  -8.2205  -6.5484  -6.5484  -0.0361  -0.0361   4.8428   4.8428
    10.1581  10.1581  11.6225  11.6225  12.7703  12.7703  14.0371  14.0371
    17.2504  17.2504  19.6456  19.6456  20.1120  20.1120  22.4919  22.4919
    26.0496  26.0496  26.6703  26.6703  30.2422  30.2422  32.9817  32.9817
    34.8895  34.8895

          k =-0.5000-1.0000 0.0000 (  1628 PWs)   bands (ev):

    -7.7224  -7.7224  -7.3093  -7.3093   1.6707   1.6707   2.8999   2.8999
    10.2925  10.2925  11.9260  11.9260  12.2155  12.2155  13.7992  13.7992
    19.5810  19.5810  20.1036  20.1036  20.9620  20.9620  22.5642  22.5642
    22.9483  22.9483  25.3344  25.3344  30.3436  30.3436  32.6631  32.6631
    36.6993  36.6993

     the Fermi energy is    37.1320 ev

     Writing output data file Si.save

     init_run     :      0.12s CPU      0.12s WALL (       1 calls)
     electrons    :    101.34s CPU    102.97s WALL (       1 calls)

     Called by init_run:
     wfcinit      :      0.00s CPU      0.00s WALL (       1 calls)
     potinit      :      0.03s CPU      0.03s WALL (       1 calls)

     Called by electrons:
     c_bands      :    101.21s CPU    102.84s WALL (       1 calls)
     v_of_rho     :      0.03s CPU      0.03s WALL (       1 calls)

     Called by c_bands:
     init_us_2    :      0.08s CPU      0.08s WALL (      72 calls)
     cegterg      :     95.64s CPU     97.16s WALL (     115 calls)

     Called by *egterg:
     h_psi        :     63.13s CPU     64.06s WALL (    1826 calls)
     g_psi        :      0.18s CPU      0.18s WALL (    1639 calls)
     cdiaghg      :      7.84s CPU      7.96s WALL (    1711 calls)

     Called by h_psi:
     add_vuspsi   :      1.76s CPU      1.78s WALL (    1826 calls)

     General routines
     calbec       :      1.95s CPU      1.98s WALL (    1826 calls)
     fft          :      0.01s CPU      0.01s WALL (      10 calls)
     fftw         :     56.43s CPU     57.27s WALL (   67216 calls)
     davcio       :      0.01s CPU      0.01s WALL (      72 calls)

     Parallel routines
     fft_scatter  :      1.38s CPU      1.39s WALL (   67226 calls)

     PWSCF        :  1m42.87s CPU     1m44.54s WALL


   This run was terminated on:  22:31:38  13Feb2023            

=------------------------------------------------------------------------------=
   JOB DONE.
=------------------------------------------------------------------------------=
