
     Program PWSCF v.5.1 starts on 13Feb2023 at 22:28:50 

     This program is part of the open-source Quantum ESPRESSO suite
     for quantum simulation of materials; please cite
         "P. Giannozzi et al., J. Phys.:Condens. Matter 21 395502 (2009);
          URL http://www.quantum-espresso.org", 
     in publications or presentations arising from this work. More details at
     http://www.quantum-espresso.org/quote

     Parallel version (MPI), running on     1 processors
     Waiting for input...
     Reading input from standard input

     Current dimensions of program PWSCF are:
     Max number of different atomic species (ntypx) = 10
     Max number of k-points (npk) =  40000
     Max angular momentum in pseudopotentials (lmaxx) =  3
               file Si.pbe-mt_fhi.UPF: wavefunction(s)  4f renormalized

     Subspace diagonalization in iterative solution of the eigenvalue problem:
     a serial algorithm will be used


     G-vector sticks info
     --------------------
     sticks:   dense  smooth     PW     G-vecs:    dense   smooth      PW
     Sum         733     733    211                12939    12939    2109



     bravais-lattice index     =            2
     lattice parameter (alat)  =      10.2623  a.u.
     unit-cell volume          =     270.1967 (a.u.)^3
     number of atoms/cell      =            2
     number of atomic types    =            1
     number of electrons       =        68.00
     number of Kohn-Sham states=           34
     kinetic-energy cutoff     =      50.0000  Ry
     charge density cutoff     =     200.0000  Ry
     convergence threshold     =      1.6E-09
     mixing beta               =       0.3000
     number of iterations used =            8  plain     mixing
     Exchange-correlation      = PBE ( 1  4  3  4 0)

     celldm(1)=  10.262347  celldm(2)=   0.000000  celldm(3)=   0.000000
     celldm(4)=   0.000000  celldm(5)=   0.000000  celldm(6)=   0.000000

     crystal axes: (cart. coord. in units of alat)
               a(1) = (  -0.500000   0.000000   0.500000 )  
               a(2) = (   0.000000   0.500000   0.500000 )  
               a(3) = (  -0.500000   0.500000   0.000000 )  

     reciprocal axes: (cart. coord. in units 2 pi/alat)
               b(1) = ( -1.000000 -1.000000  1.000000 )  
               b(2) = (  1.000000  1.000000  1.000000 )  
               b(3) = ( -1.000000  1.000000 -1.000000 )  


     PseudoPot. # 1 for Si read from file:
     /home/acedemo/psudo/Si.pbe-mt_fhi.UPF
     MD5 check sum: 259057c2adf9952f9ced37ae3d9e311d
     Pseudo is Norm-conserving, Zval =  4.0
     Generated using FHI98PP, converted with fhi2upf.x v.5.0.2
     Using radial grid of  495 points,  3 beta functions with: 
                l(1) =   0
                l(2) =   1
                l(3) =   3

     atomic species   valence    mass     pseudopotential
        Si             4.00    28.08550     Si( 1.00)

     48 Sym. Ops., with inversion, found (24 have fractional translation)



   Cartesian axes

     site n.     atom                  positions (alat units)
         1           Si  tau(   1) = (   0.0000000   0.0000000   0.0000000  )
         2           Si  tau(   2) = (   0.2500000   0.2500000   0.2500000  )

     number of k points=    10  Marzari-Vanderbilt smearing, width (Ry)=  0.0500
                       cart. coord. in units 2pi/alat
        k(    1) = (   0.0000000   0.0000000   0.0000000), wk =   0.0160000
        k(    2) = (  -0.2000000   0.2000000  -0.2000000), wk =   0.1280000
        k(    3) = (  -0.4000000   0.4000000  -0.4000000), wk =   0.1280000
        k(    4) = (   0.0000000   0.4000000   0.0000000), wk =   0.0960000
        k(    5) = (  -0.2000000   0.6000000  -0.2000000), wk =   0.3840000
        k(    6) = (   0.6000000  -0.2000000   0.6000000), wk =   0.3840000
        k(    7) = (   0.4000000   0.0000000   0.4000000), wk =   0.1920000
        k(    8) = (   0.0000000   0.8000000   0.0000000), wk =   0.0960000
        k(    9) = (   0.8000000   0.0000000   0.8000000), wk =   0.1920000
        k(   10) = (   0.6000000  -0.2000000   1.0000000), wk =   0.3840000

     Dense  grid:    12939 G-vectors     FFT dimensions: (  36,  36,  36)

     Largest allocated arrays     est. size (Mb)     dimensions
        Kohn-Sham Wavefunctions         0.85 Mb     (    1639,   34)
        NL pseudopotentials             0.55 Mb     (    1639,   22)
        Each V/rho on FFT grid          0.71 Mb     (   46656)
        Each G-vector array             0.10 Mb     (   12939)
        G-vector shells                 0.00 Mb     (     180)
     Largest temporary arrays     est. size (Mb)     dimensions
        Auxiliary wavefunctions         3.40 Mb     (    1639,  136)
        Each subspace H/S matrix        0.28 Mb     (     136,  136)
        Each <psi_i|beta_j> matrix      0.01 Mb     (      22,   34)
        Arrays for rho mixing           5.70 Mb     (   46656,    8)

     Initial potential from superposition of free atoms

     starting charge    7.99859, renormalised to   68.00000
     Starting wfc are   32 randomized atomic wfcs +    2 random wfc

     total cpu time spent up to now is        1.0 secs

     per-process dynamical memory:    22.6 Mb

     Self-consistent Calculation

     iteration #  1     ecut=    50.00 Ry     beta=0.30
     Davidson diagonalization with overlap
     ethr =  1.00E-02,  avg # of iterations =  7.8

     total cpu time spent up to now is        6.8 secs

     total energy              =     127.47697624 Ry
     Harris-Foulkes estimate   =     -16.78793903 Ry
     estimated scf accuracy    <     311.31549608 Ry

     iteration #  2     ecut=    50.00 Ry     beta=0.30
     Davidson diagonalization with overlap
     ethr =  1.00E-02,  avg # of iterations =  4.2

     total cpu time spent up to now is       11.0 secs

     total energy              =      83.59408746 Ry
     Harris-Foulkes estimate   =      81.53901072 Ry
     estimated scf accuracy    <       4.06500014 Ry

     iteration #  3     ecut=    50.00 Ry     beta=0.30
     Davidson diagonalization with overlap
     ethr =  5.98E-03,  avg # of iterations =  2.8

     total cpu time spent up to now is       13.7 secs

     total energy              =      82.80287428 Ry
     Harris-Foulkes estimate   =      82.70439209 Ry
     estimated scf accuracy    <       0.28191702 Ry

     iteration #  4     ecut=    50.00 Ry     beta=0.30
     Davidson diagonalization with overlap
     ethr =  4.15E-04,  avg # of iterations =  2.5

     total cpu time spent up to now is       16.0 secs

     total energy              =      82.82901752 Ry
     Harris-Foulkes estimate   =      82.78224239 Ry
     estimated scf accuracy    <       0.07670930 Ry

     iteration #  5     ecut=    50.00 Ry     beta=0.30
     Davidson diagonalization with overlap
     ethr =  1.13E-04,  avg # of iterations =  3.4

     total cpu time spent up to now is       18.8 secs

     total energy              =      82.81833329 Ry
     Harris-Foulkes estimate   =      82.81471859 Ry
     estimated scf accuracy    <       0.00661144 Ry

     iteration #  6     ecut=    50.00 Ry     beta=0.30
     Davidson diagonalization with overlap
     ethr =  9.72E-06,  avg # of iterations =  3.4

     total cpu time spent up to now is       21.6 secs

     total energy              =      82.81452127 Ry
     Harris-Foulkes estimate   =      82.81401145 Ry
     estimated scf accuracy    <       0.00117883 Ry

     iteration #  7     ecut=    50.00 Ry     beta=0.30
     Davidson diagonalization with overlap
     ethr =  1.73E-06,  avg # of iterations =  2.5

     total cpu time spent up to now is       24.1 secs

     total energy              =      82.81433467 Ry
     Harris-Foulkes estimate   =      82.81433171 Ry
     estimated scf accuracy    <       0.00002893 Ry

     iteration #  8     ecut=    50.00 Ry     beta=0.30
     Davidson diagonalization with overlap
     ethr =  4.25E-08,  avg # of iterations =  4.4

     total cpu time spent up to now is       26.8 secs

     total energy              =      82.80617306 Ry
     Harris-Foulkes estimate   =      82.80615566 Ry
     estimated scf accuracy    <       0.00241344 Ry

     iteration #  9     ecut=    50.00 Ry     beta=0.30
     Davidson diagonalization with overlap
     ethr =  4.25E-08,  avg # of iterations =  1.0

     total cpu time spent up to now is       28.7 secs

     total energy              =      82.80775367 Ry
     Harris-Foulkes estimate   =      82.80617301 Ry
     estimated scf accuracy    <       0.00237336 Ry

     iteration # 10     ecut=    50.00 Ry     beta=0.30
     Davidson diagonalization with overlap
     ethr =  4.25E-08,  avg # of iterations =  5.4

     total cpu time spent up to now is       33.0 secs

     total energy              =      82.80704168 Ry
     Harris-Foulkes estimate   =      82.80706757 Ry
     estimated scf accuracy    <       0.00019153 Ry

     iteration # 11     ecut=    50.00 Ry     beta=0.30
     Davidson diagonalization with overlap
     ethr =  4.25E-08,  avg # of iterations =  3.5

     total cpu time spent up to now is       36.2 secs

     total energy              =      82.80723398 Ry
     Harris-Foulkes estimate   =      82.80700924 Ry
     estimated scf accuracy    <       0.00032278 Ry

     iteration # 12     ecut=    50.00 Ry     beta=0.30
     Davidson diagonalization with overlap
     ethr =  4.25E-08,  avg # of iterations =  4.3

     total cpu time spent up to now is       40.3 secs

     total energy              =      82.80717004 Ry
     Harris-Foulkes estimate   =      82.80707514 Ry
     estimated scf accuracy    <       0.00016736 Ry

     iteration # 13     ecut=    50.00 Ry     beta=0.30
     Davidson diagonalization with overlap
     ethr =  4.25E-08,  avg # of iterations =  3.8

     total cpu time spent up to now is       43.8 secs

     total energy              =      82.80714572 Ry
     Harris-Foulkes estimate   =      82.80714502 Ry
     estimated scf accuracy    <       0.00000108 Ry

     iteration # 14     ecut=    50.00 Ry     beta=0.30
     Davidson diagonalization with overlap
     ethr =  1.59E-09,  avg # of iterations =  3.4

     total cpu time spent up to now is       47.8 secs

     total energy              =      82.80714546 Ry
     Harris-Foulkes estimate   =      82.80714533 Ry
     estimated scf accuracy    <       0.00000018 Ry

     iteration # 15     ecut=    50.00 Ry     beta=0.30
     Davidson diagonalization with overlap
     ethr =  2.63E-10,  avg # of iterations =  3.7

     total cpu time spent up to now is       51.5 secs

     total energy              =      82.80714540 Ry
     Harris-Foulkes estimate   =      82.80714536 Ry
     estimated scf accuracy    <       0.00000011 Ry

     iteration # 16     ecut=    50.00 Ry     beta=0.30
     Davidson diagonalization with overlap
     ethr =  1.55E-10,  avg # of iterations =  2.3

     total cpu time spent up to now is       53.7 secs

     total energy              =      82.80714540 Ry
     Harris-Foulkes estimate   =      82.80714539 Ry
     estimated scf accuracy    <       0.00000001 Ry

     iteration # 17     ecut=    50.00 Ry     beta=0.30
     Davidson diagonalization with overlap
     ethr =  1.71E-11,  avg # of iterations =  2.9

     total cpu time spent up to now is       57.5 secs

     End of self-consistent calculation

          k = 0.0000 0.0000 0.0000 (  1639 PWs)   bands (ev):

   -13.7082   0.1704   0.1704   0.1704   0.5255   0.5255   0.5255   3.0105
     3.0677   5.2765   5.2765   6.0280   6.0280   6.0280   9.6067  22.5047
    22.5047  22.5047  24.0943  24.0943  25.1323  25.1323  25.1323  26.3919
    26.3919  26.3919  31.7845  34.9292  34.9292  34.9292  36.4953  36.4953
    37.1351  37.1351

          k =-0.2000 0.2000-0.2000 (  1606 PWs)   bands (ev):

   -13.1084  -4.2884  -1.0115  -1.0115   0.8122   1.8345   1.8345   3.3032
     3.4181   3.4181   5.3437   8.0111  10.0773  10.0773  12.4034  17.4277
    17.4277  18.6047  23.8060  23.8060  25.8170  25.8170  26.7793  26.9851
    29.8000  30.3356  30.3356  32.2523  32.2523  33.0319  33.0319  34.2577
    34.4729  34.5525

          k =-0.4000 0.4000-0.4000 (  1616 PWs)   bands (ev):

   -11.3189  -8.3447  -1.3714  -1.3714   0.2316   0.2316   0.7025   1.6363
     6.7201   6.7201   8.4663  11.5475  11.5475  13.4507  15.1674  15.6596
    15.6596  17.4932  22.3132  22.4163  22.4163  24.7262  25.2336  25.2336
    27.2783  27.2783  28.6786  29.6607  29.6607  30.2325  30.2325  30.6850
    32.2057  33.1188

          k = 0.0000 0.4000 0.0000 (  1607 PWs)   bands (ev):

   -12.9086  -2.6554  -2.6554  -1.9806  -1.5451  -0.7894   4.4777   4.4777
     6.0813   6.5218   6.5485   7.1907   7.1907   8.9820  14.9666  17.2478
    17.2478  18.0615  20.1655  23.2380  25.7888  26.3187  26.3187  28.4425
    28.4425  29.2143  30.4311  32.3226  32.5356  32.5356  32.8499  35.0625
    35.6943  35.6943

          k =-0.2000 0.6000-0.2000 (  1619 PWs)   bands (ev):

   -11.5155  -6.5979  -3.7482  -3.2306  -2.0470   1.1683   3.5930   4.5123
     5.5462   8.3201   9.5853  11.2911  11.8853  12.2795  12.9086  13.3480
    18.8480  18.9979  19.9268  20.1662  21.3550  24.3885  24.4560  25.7790
    27.4537  27.5244  28.2298  28.5249  29.9856  31.8556  32.7616  33.5809
    34.2470  34.4755

          k = 0.6000-0.2000 0.6000 (  1596 PWs)   bands (ev):

    -9.9461  -8.9219  -5.0596  -2.6821  -1.5055   2.3233   3.2431   5.5162
     5.7524   6.1467   7.8568  12.7701  13.0149  13.9600  15.0307  18.0128
    18.0272  18.4965  19.7004  20.8042  21.1968  21.7067  22.4569  22.8149
    23.5798  25.9551  28.4628  28.6848  28.7008  30.1176  31.9300  33.2446
    34.6050  35.3991

          k = 0.4000 0.0000 0.4000 (  1610 PWs)   bands (ev):

   -12.1117  -5.2618  -5.2322  -1.0877   0.1829   2.0686   2.3202   2.9472
     3.2894   7.2478   8.0882  10.5554  10.7729  11.4736  14.8394  16.2537
    17.7815  18.2096  18.9829  20.8014  24.7396  25.2784  25.8869  26.4230
    26.7241  27.2596  29.8588  30.2732  31.8193  32.3790  33.0274  33.5682
    34.0708  34.4715

          k = 0.0000 0.8000 0.0000 (  1624 PWs)   bands (ev):

   -10.5239  -6.6127  -4.1750  -4.1750  -3.0488  -3.0289   8.0662   8.0662
     8.4933  10.8456  11.5329  11.5329  11.6225  12.4802  12.4802  12.5010
    12.5959  16.3035  19.6269  19.6269  19.7173  20.8861  24.0369  25.7973
    28.3278  28.3427  28.3427  31.0730  31.8022  31.8022  33.5416  33.6945
    34.9513  35.3779

          k = 0.8000 0.0000 0.8000 (  1622 PWs)   bands (ev):

    -8.3872  -8.3598  -7.3312  -3.9875  -2.8483   0.4526   6.6789   6.7183
     7.5725   7.7325  11.9382  12.3916  13.5442  14.0379  14.9429  15.0167
    16.0288  16.8580  17.3493  17.7702  19.6517  20.4033  22.4829  23.1318
    27.4132  27.8681  28.0715  29.5514  30.0569  30.8198  31.6595  31.9537
    32.6442  33.2349

          k = 0.6000-0.2000 1.0000 (  1616 PWs)   bands (ev):

    -9.7388  -6.8344  -6.7723  -5.7701   0.8095   1.0038   2.3351   5.8126
     8.0899   8.8008  10.1971  10.4465  12.6917  14.3088  15.8872  16.2170
    16.9097  17.1751  18.6067  20.0008  20.6253  22.8461  23.3220  23.7490
    24.8074  24.8934  25.7090  26.1862  28.1024  31.6401  32.3343  34.5687
    34.9297  37.0013

     the Fermi energy is    37.6274 ev

!    total energy              =      82.80714540 Ry
     Harris-Foulkes estimate   =      82.80714540 Ry
     estimated scf accuracy    <          1.7E-11 Ry

     The total energy is the sum of the following terms:

     one-electron contribution =     168.29655597 Ry
     hartree contribution      =       3.35668666 Ry
     xc contribution           =     -72.05094508 Ry
     ewald contribution        =     -16.79708774 Ry
     smearing contrib. (-TS)   =       0.00193558 Ry

     convergence has been achieved in  17 iterations

     Forces acting on atoms (Ry/au):

     atom    1 type  1   force =     0.00000000   -0.00000000    0.00000000
     atom    2 type  1   force =    -0.00000000    0.00000000   -0.00000000

     Total force =     0.000000     Total SCF correction =     0.000000


     entering subroutine stress ...

          total   stress  (Ry/bohr**3)                   (kbar)     P=50544.09
   0.34359183   0.00000000  -0.00000000      50544.09      0.00     -0.00
  -0.00000000   0.34359183   0.00000000         -0.00  50544.09      0.00
  -0.00000000   0.00000000   0.34359183         -0.00      0.00  50544.09


     Writing output data file Si.save

     init_run     :      0.89s CPU      0.92s WALL (       1 calls)
     electrons    :     55.60s CPU     56.55s WALL (       1 calls)
     forces       :      0.17s CPU      0.17s WALL (       1 calls)
     stress       :      0.71s CPU      0.80s WALL (       1 calls)

     Called by init_run:
     wfcinit      :      0.78s CPU      0.79s WALL (       1 calls)
     potinit      :      0.03s CPU      0.05s WALL (       1 calls)

     Called by electrons:
     c_bands      :     49.33s CPU     50.17s WALL (      17 calls)
     sum_band     :      5.66s CPU      5.76s WALL (      17 calls)
     v_of_rho     :      0.57s CPU      0.59s WALL (      18 calls)
     mix_rho      :      0.05s CPU      0.05s WALL (      17 calls)

     Called by c_bands:
     init_us_2    :      0.42s CPU      0.44s WALL (     370 calls)
     cegterg      :     48.97s CPU     49.81s WALL (     170 calls)

     Called by *egterg:
     h_psi        :     34.56s CPU     35.20s WALL (     793 calls)
     g_psi        :      0.09s CPU      0.09s WALL (     613 calls)
     cdiaghg      :      3.05s CPU      3.07s WALL (     783 calls)

     Called by h_psi:
     add_vuspsi   :      0.97s CPU      0.98s WALL (     793 calls)

     General routines
     calbec       :      1.12s CPU      1.13s WALL (     813 calls)
     fft          :      0.23s CPU      0.24s WALL (     205 calls)
     fftw         :     35.67s CPU     36.33s WALL (   42816 calls)
     davcio       :      0.00s CPU      0.00s WALL (      10 calls)

     Parallel routines
     fft_scatter  :      0.90s CPU      0.91s WALL (   43021 calls)

     PWSCF        :    57.43s CPU        58.53s WALL


   This run was terminated on:  22:29:48  13Feb2023            

=------------------------------------------------------------------------------=
   JOB DONE.
=------------------------------------------------------------------------------=
