
     Program PWSCF v.5.1 starts on 13Feb2023 at 20:57:31 

     This program is part of the open-source Quantum ESPRESSO suite
     for quantum simulation of materials; please cite
         "P. Giannozzi et al., J. Phys.:Condens. Matter 21 395502 (2009);
          URL http://www.quantum-espresso.org", 
     in publications or presentations arising from this work. More details at
     http://www.quantum-espresso.org/quote

     Parallel version (MPI), running on     1 processors
     Waiting for input...
     Reading input from standard input

     Current dimensions of program PWSCF are:
     Max number of different atomic species (ntypx) = 10
     Max number of k-points (npk) =  40000
     Max angular momentum in pseudopotentials (lmaxx) =  3

     Atomic positions and unit cell read from directory:
     ./out/Si.save/

               file Si.pbe-mt_fhi.UPF: wavefunction(s)  4f renormalized

     Subspace diagonalization in iterative solution of the eigenvalue problem:
     a serial algorithm will be used


     G-vector sticks info
     --------------------
     sticks:   dense  smooth     PW     G-vecs:    dense   smooth      PW
     Sum         733     733    211                12939    12939    2109



     bravais-lattice index     =            2
     lattice parameter (alat)  =      10.2623  a.u.
     unit-cell volume          =     270.1967 (a.u.)^3
     number of atoms/cell      =            2
     number of atomic types    =            1
     number of electrons       =         5.00
     number of Kohn-Sham states=           10
     kinetic-energy cutoff     =      50.0000  Ry
     charge density cutoff     =     200.0000  Ry
     Exchange-correlation      = PBE ( 1  4  3  4 0)

     celldm(1)=  10.262347  celldm(2)=   0.000000  celldm(3)=   0.000000
     celldm(4)=   0.000000  celldm(5)=   0.000000  celldm(6)=   0.000000

     crystal axes: (cart. coord. in units of alat)
               a(1) = (  -0.500000   0.000000   0.500000 )  
               a(2) = (   0.000000   0.500000   0.500000 )  
               a(3) = (  -0.500000   0.500000   0.000000 )  

     reciprocal axes: (cart. coord. in units 2 pi/alat)
               b(1) = ( -1.000000 -1.000000  1.000000 )  
               b(2) = (  1.000000  1.000000  1.000000 )  
               b(3) = ( -1.000000  1.000000 -1.000000 )  


     PseudoPot. # 1 for Si read from file:
     /home/acedemo/psudo/Si.pbe-mt_fhi.UPF
     MD5 check sum: 259057c2adf9952f9ced37ae3d9e311d
     Pseudo is Norm-conserving, Zval =  4.0
     Generated using FHI98PP, converted with fhi2upf.x v.5.0.2
     Using radial grid of  495 points,  3 beta functions with: 
                l(1) =   0
                l(2) =   1
                l(3) =   3

     atomic species   valence    mass     pseudopotential
        Si             4.00    28.08550     Si( 1.00)

     48 Sym. Ops., with inversion, found (24 have fractional translation)



   Cartesian axes

     site n.     atom                  positions (alat units)
         1           Si  tau(   1) = (   0.0000000   0.0000000   0.0000000  )
         2           Si  tau(   2) = (   0.2500000   0.2500000   0.2500000  )

     number of k points=    51  Marzari-Vanderbilt smearing, width (Ry)=  0.0500
                       cart. coord. in units 2pi/alat
        k(    1) = (   0.5000000   0.5000000   0.5000000), wk =   0.0000000
        k(    2) = (   0.4500000   0.4500000   0.4500000), wk =   0.0014779
        k(    3) = (   0.4000000   0.4000000   0.4000000), wk =   0.0029558
        k(    4) = (   0.3500000   0.3500000   0.3500000), wk =   0.0044337
        k(    5) = (   0.3000000   0.3000000   0.3000000), wk =   0.0059116
        k(    6) = (   0.2500000   0.2500000   0.2500000), wk =   0.0073895
        k(    7) = (   0.2000000   0.2000000   0.2000000), wk =   0.0088674
        k(    8) = (   0.1500000   0.1500000   0.1500000), wk =   0.0103453
        k(    9) = (   0.1000000   0.1000000   0.1000000), wk =   0.0118232
        k(   10) = (   0.0500000   0.0500000   0.0500000), wk =   0.0133011
        k(   11) = (   0.0000000   0.0000000   0.0000000), wk =   0.0147790
        k(   12) = (   0.0000000   0.1000000   0.0000000), wk =   0.0168691
        k(   13) = (   0.0000000   0.2000000   0.0000000), wk =   0.0189591
        k(   14) = (   0.0000000   0.3000000   0.0000000), wk =   0.0210492
        k(   15) = (   0.0000000   0.4000000   0.0000000), wk =   0.0231392
        k(   16) = (   0.0000000   0.5000000   0.0000000), wk =   0.0252293
        k(   17) = (   0.0000000   0.6000000   0.0000000), wk =   0.0273194
        k(   18) = (   0.0000000   0.7000000   0.0000000), wk =   0.0294094
        k(   19) = (   0.0000000   0.8000000   0.0000000), wk =   0.0314995
        k(   20) = (   0.0000000   0.9000000   0.0000000), wk =   0.0335896
        k(   21) = (   0.0000000   1.0000000   0.0000000), wk =   0.0356796
        k(   22) = (   0.0000000   0.9750000   0.0750000), wk =   0.0370621
        k(   23) = (   0.0000000   0.9500000   0.1500000), wk =   0.0384445
        k(   24) = (  -0.0000000   0.9250000   0.2250000), wk =   0.0398270
        k(   25) = (  -0.0000000   0.9000000   0.3000000), wk =   0.0412094
        k(   26) = (   0.0000000   0.8750000   0.3750000), wk =   0.0425919
        k(   27) = (   0.0000000   0.8500000   0.4500000), wk =   0.0439743
        k(   28) = (   0.0000000   0.8250000   0.5250000), wk =   0.0453568
        k(   29) = (  -0.0000000   0.8000000   0.6000000), wk =   0.0467392
        k(   30) = (  -0.0000000   0.7750000   0.6750000), wk =   0.0481217
        k(   31) = (   0.0000000   0.7500000   0.7500000), wk =   0.0495041
        k(   32) = (   0.0000000   0.7250000   0.7750000), wk =   0.0500266
        k(   33) = (   0.0000000   0.7000000   0.8000000), wk =   0.0505491
        k(   34) = (   0.0000000   0.6750000   0.8250000), wk =   0.0510717
        k(   35) = (   0.0000000   0.6500000   0.8500000), wk =   0.0515942
        k(   36) = (   0.0000000   0.6250000   0.8750000), wk =   0.0521167
        k(   37) = (   0.0000000   0.6000000   0.9000000), wk =   0.0526392
        k(   38) = (   0.0000000   0.5750000   0.9250000), wk =   0.0531617
        k(   39) = (   0.0000000   0.5500000   0.9500000), wk =   0.0536842
        k(   40) = (   0.0000000   0.5250000   0.9750000), wk =   0.0542067
        k(   41) = (   0.0000000   0.5000000   1.0000000), wk =   0.0547293
        k(   42) = (   0.0000000   0.4500000   0.9000000), wk =   0.0574942
        k(   43) = (  -0.0000000   0.4000000   0.8000000), wk =   0.0602591
        k(   44) = (  -0.0000000   0.3500000   0.7000000), wk =   0.0630239
        k(   45) = (  -0.0000000   0.3000000   0.6000000), wk =   0.0657888
        k(   46) = (   0.0000000   0.2500000   0.5000000), wk =   0.0685537
        k(   47) = (   0.0000000   0.2000000   0.4000000), wk =   0.0713186
        k(   48) = (   0.0000000   0.1500000   0.3000000), wk =   0.0740835
        k(   49) = (  -0.0000000   0.1000000   0.2000000), wk =   0.0768484
        k(   50) = (  -0.0000000   0.0500000   0.1000000), wk =   0.0796133
        k(   51) = (   0.0000000   0.0000000   0.0000000), wk =   0.0823782

     Dense  grid:    12939 G-vectors     FFT dimensions: (  36,  36,  36)

     Largest allocated arrays     est. size (Mb)     dimensions
        Kohn-Sham Wavefunctions         0.25 Mb     (    1639,   10)
        NL pseudopotentials             0.55 Mb     (    1639,   22)
        Each V/rho on FFT grid          0.71 Mb     (   46656)
        Each G-vector array             0.10 Mb     (   12939)
        G-vector shells                 0.00 Mb     (     180)
     Largest temporary arrays     est. size (Mb)     dimensions
        Auxiliary wavefunctions         1.00 Mb     (    1639,   40)
        Each subspace H/S matrix        0.02 Mb     (      40,   40)
        Each <psi_i|beta_j> matrix      0.00 Mb     (      22,   10)

     The potential is recalculated from file :
     ./out/Si.save/charge-density.dat

     Starting wfc are   32 randomized atomic wfcs

     Band Structure Calculation
     Davidson diagonalization with overlap

     ethr =  3.20E-11,  avg # of iterations = 14.8

     total cpu time spent up to now is       29.7 secs

     End of band structure calculation

          k = 0.5000 0.5000 0.5000 (  1622 PWs)   bands (ev):

    -3.2805  -0.2305   5.0473   5.0473   8.3772  10.5405  10.5405  16.0992
    17.4362  17.4362

          k = 0.4500 0.4500 0.4500 (  1610 PWs)   bands (ev):

    -3.3870  -0.0662   5.0647   5.0647   8.3971  10.5485  10.5485  16.0415
    16.8198  16.8198

          k = 0.4000 0.4000 0.4000 (  1616 PWs)   bands (ev):

    -3.6510   0.3706   5.1164   5.1164   8.4559  10.5658  10.5658  15.7508
    16.0167  16.0167

          k = 0.3500 0.3500 0.3500 (  1610 PWs)   bands (ev):

    -3.9800   0.9851   5.2011   5.2011   8.5516  10.5729  10.5729  15.0850
    15.3213  15.3213

          k = 0.3000 0.3000 0.3000 (  1615 PWs)   bands (ev):

    -4.3128   1.7126   5.3162   5.3162   8.6798  10.5382  10.5382  14.2071
    14.7894  14.7894

          k = 0.2500 0.2500 0.2500 (  1618 PWs)   bands (ev):

    -4.6181   2.5149   5.4569   5.4569   8.8339  10.4293  10.4293  13.2603
    14.4589  14.4589

          k = 0.2000 0.2000 0.2000 (  1606 PWs)   bands (ev):

    -4.8798   3.3647   5.6152   5.6152   9.0030  10.2373  10.2373  12.2965
    14.3370  14.3370

          k = 0.1500 0.1500 0.1500 (  1600 PWs)   bands (ev):

    -5.0892   4.2330   5.7783   5.7783   9.1715   9.9931   9.9931  11.3455
    14.3855  14.3855

          k = 0.1000 0.1000 0.1000 (  1606 PWs)   bands (ev):

    -5.2414   5.0713   5.9263   5.9263   9.3175   9.7533   9.7533  10.4528
    14.5297  14.5297

          k = 0.0500 0.0500 0.0500 (  1630 PWs)   bands (ev):

    -5.3336   5.7689   6.0329   6.0329   9.4077   9.5781   9.5781   9.7354
    14.6773  14.6773

          k = 0.0000 0.0000 0.0000 (  1639 PWs)   bands (ev):

    -5.3645   6.0723   6.0723   6.0723   9.3523   9.5137   9.5137   9.5137
    14.7399  14.7399

          k = 0.0000 0.1000 0.0000 (  1627 PWs)   bands (ev):

    -5.3233   5.7924   5.9551   5.9551   9.4470   9.6240   9.6841   9.6841
    14.5303  14.7875

          k = 0.0000 0.2000 0.0000 (  1599 PWs)   bands (ev):

    -5.1999   5.1363   5.6615   5.6615   9.2672  10.1367  10.1367  10.2230
    14.0508  14.9304

          k = 0.0000 0.3000 0.0000 (  1607 PWs)   bands (ev):

    -4.9951   4.3296   5.2914   5.2914   9.0207  10.7703  10.7703  10.7787
    13.6428  15.1682

          k = 0.0000 0.4000 0.0000 (  1607 PWs)   bands (ev):

    -4.7102   3.4709   4.9130   4.9130   8.7567  10.8840  11.5145  11.5145
    13.7452  15.5008

          k = 0.0000 0.5000 0.0000 (  1612 PWs)   bands (ev):

    -4.3473   2.5990   4.5631   4.5631   8.5144  10.5022  12.3304  12.3304
    14.4239  15.9277

          k = 0.0000 0.6000 0.0000 (  1620 PWs)   bands (ev):

    -3.9090   1.7322   4.2615   4.2615   8.3217   9.9591  13.1963  13.1963
    15.3672  16.4485

          k = 0.0000 0.7000 0.0000 (  1632 PWs)   bands (ev):

    -3.3986   0.8818   4.0191   4.0191   8.1981   9.4294  14.0987  14.0987
    16.4019  17.0624

          k = 0.0000 0.8000 0.0000 (  1624 PWs)   bands (ev):

    -2.8203   0.0571   3.8423   3.8423   8.1573   8.9742  15.0245  15.0245
    17.4596  17.7685

          k = 0.0000 0.9000 0.0000 (  1608 PWs)   bands (ev):

    -2.1792  -0.7333   3.7349   3.7349   8.2092   8.6157  15.9385  15.9385
    18.2425  18.2425

          k = 0.0000 1.0000 0.0000 (  1604 PWs)   bands (ev):

    -1.4812  -1.4812   3.6989   3.6989   8.3607   8.3607  16.5323  16.5323
    17.6372  17.6372

          k = 0.0000 0.9750 0.0750 (  1618 PWs)   bands (ev):

    -1.6542  -1.2953   3.6576   3.6626   8.4158   8.5150  16.2169  16.3752
    17.3844  17.5488

          k = 0.0000 0.9500 0.1500 (  1622 PWs)   bands (ev):

    -1.8065  -1.1076   3.5398   3.5772   8.6721   8.8590  15.3307  16.0291
    16.9042  17.6299

          k =-0.0000 0.9250 0.2250 (  1622 PWs)   bands (ev):

    -1.9328  -0.9329   3.3708   3.4877   9.0982   9.3587  14.2633  15.5252
    16.4787  17.7538

          k =-0.0000 0.9000 0.3000 (  1623 PWs)   bands (ev):

    -2.0300  -0.7884   3.1827   3.4373   9.6570   9.9809  13.1780  14.9112
    16.1434  17.7398

          k = 0.0000 0.8750 0.3750 (  1614 PWs)   bands (ev):

    -2.0963  -0.6899   3.0023   3.4568  10.3163  10.6996  12.1283  14.2602
    15.8519  17.5290

          k = 0.0000 0.8500 0.4500 (  1612 PWs)   bands (ev):

    -2.1309  -0.6460   2.8488   3.5567  11.0503  11.1425  11.4983  13.6146
    15.5748  17.1795

          k = 0.0000 0.8250 0.5250 (  1611 PWs)   bands (ev):

    -2.1335  -0.6551   2.7350   3.7222  10.2611  11.8341  12.3532  12.9995
    15.3011  16.7478

          k =-0.0000 0.8000 0.6000 (  1614 PWs)   bands (ev):

    -2.1042  -0.7077   2.6689   3.9104   9.5232  12.3379  12.7376  13.2532
    15.0298  16.2741

          k =-0.0000 0.7750 0.6750 (  1621 PWs)   bands (ev):

    -2.0433  -0.7918   2.6552   4.0512   8.9967  11.8346  13.5368  14.1633
    14.7742  15.8048

          k = 0.0000 0.7500 0.7500 (  1624 PWs)   bands (ev):

    -1.9508  -0.8984   2.6957   4.0644   8.7583  11.3388  14.2129  14.6986
    14.8481  15.5762

          k = 0.0000 0.7250 0.7750 (  1616 PWs)   bands (ev):

    -1.9451  -0.9022   2.6996   4.0421   8.7993  11.3426  14.0797  14.6944
    14.8314  15.7280

          k = 0.0000 0.7000 0.8000 (  1621 PWs)   bands (ev):

    -1.9280  -0.9136   2.7111   3.9781   8.9192  11.3539  13.8329  14.3917
    15.0768  16.0238

          k = 0.0000 0.6750 0.8250 (  1620 PWs)   bands (ev):

    -1.8996  -0.9332   2.7302   3.8804   9.1108  11.3726  13.5642  14.0539
    15.3434  16.3464

          k = 0.0000 0.6500 0.8500 (  1616 PWs)   bands (ev):

    -1.8598  -0.9618   2.7567   3.7594   9.3643  11.3986  13.2912  13.7081
    15.6133  16.6617

          k = 0.0000 0.6250 0.8750 (  1616 PWs)   bands (ev):

    -1.8088  -1.0005   2.7906   3.6259   9.6697  11.4315  13.0195  13.3627
    15.8810  16.9487

          k = 0.0000 0.6000 0.9000 (  1613 PWs)   bands (ev):

    -1.7464  -1.0506   2.8316   3.4898  10.0180  11.4709  12.7521  13.0214
    16.1435  17.1819

          k = 0.0000 0.5750 0.9250 (  1615 PWs)   bands (ev):

    -1.6728  -1.1133   2.8795   3.3595  10.4015  11.5158  12.4914  12.6866
    16.3985  17.3268

          k = 0.0000 0.5500 0.9500 (  1615 PWs)   bands (ev):

    -1.5881  -1.1896   2.9339   3.2415  10.8136  11.5641  12.2408  12.3606
    16.6435  17.3532

          k = 0.0000 0.5250 0.9750 (  1615 PWs)   bands (ev):

    -1.4923  -1.2802   2.9944   3.1408  11.2452  11.6082  12.0089  12.0487
    16.8752  17.2629

          k = 0.0000 0.5000 1.0000 (  1628 PWs)   bands (ev):

    -1.3854  -1.3854   3.0607   3.0607  11.6032  11.6032  11.8411  11.8411
    17.0891  17.0891

          k = 0.0000 0.4500 0.9000 (  1616 PWs)   bands (ev):

    -1.8853  -0.8916   2.8942   3.3699  11.0744  11.3479  11.5228  13.1541
    16.1064  17.4714

          k =-0.0000 0.4000 0.8000 (  1616 PWs)   bands (ev):

    -2.4562  -0.3095   2.9388   3.7338  10.5423  11.1457  11.3278  14.6408
    15.0936  16.8792

          k =-0.0000 0.3500 0.7000 (  1618 PWs)   bands (ev):

    -3.0465   0.3592   3.1603   4.1306  10.1127  10.9648  11.2837  13.9984
    16.0680  16.3034

          k =-0.0000 0.3000 0.6000 (  1609 PWs)   bands (ev):

    -3.6120   1.1120   3.5185   4.5361   9.7888  10.7823  11.3906  13.0446
    15.3170  17.7933

          k = 0.0000 0.2500 0.5000 (  1610 PWs)   bands (ev):

    -4.1223   1.9446   3.9762   4.9270   9.5697  10.5699  11.6231  12.1634
    14.6641  16.7917

          k = 0.0000 0.2000 0.4000 (  1613 PWs)   bands (ev):

    -4.5577   2.8491   4.4971   5.2847   9.4498  10.3100  11.3654  11.8609
    14.0728  15.6523

          k = 0.0000 0.1500 0.3000 (  1607 PWs)   bands (ev):

    -4.9060   3.8090   5.0386   5.5954   9.4162  10.0168  10.6628  11.6689
    13.7697  15.0514

          k =-0.0000 0.1000 0.2000 (  1600 PWs)   bands (ev):

    -5.1593   4.7845   5.5430   5.8450   9.4433   9.7356  10.0796  10.8128
    14.0686  14.8245

          k =-0.0000 0.0500 0.1000 (  1623 PWs)   bands (ev):

    -5.3130   5.6579   5.9245   6.0124   9.4908   9.5197   9.6682   9.8759
    14.5263  14.7541

          k = 0.0000 0.0000 0.0000 (  1639 PWs)   bands (ev):

    -5.3645   6.0723   6.0723   6.0723   9.3523   9.5137   9.5137   9.5137
    14.7399  14.7399

     Writing output data file Si.save

     init_run     :      0.21s CPU      0.21s WALL (       1 calls)
     electrons    :     25.94s CPU     28.03s WALL (       1 calls)

     Called by init_run:
     wfcinit      :      0.00s CPU      0.00s WALL (       1 calls)
     potinit      :      0.05s CPU      0.05s WALL (       1 calls)

     Called by electrons:
     c_bands      :     25.94s CPU     28.02s WALL (       1 calls)
     v_of_rho     :      0.04s CPU      0.04s WALL (       1 calls)

     Called by c_bands:
     init_us_2    :      0.10s CPU      0.10s WALL (      51 calls)
     cegterg      :     19.76s CPU     21.34s WALL (      53 calls)

     Called by *egterg:
     h_psi        :     21.68s CPU     23.41s WALL (     859 calls)
     g_psi        :      0.05s CPU      0.05s WALL (     755 calls)
     cdiaghg      :      0.39s CPU      0.42s WALL (     806 calls)

     Called by h_psi:
     add_vuspsi   :      0.62s CPU      0.66s WALL (     859 calls)

     General routines
     calbec       :      0.71s CPU      0.77s WALL (     859 calls)
     fft          :      0.02s CPU      0.02s WALL (      10 calls)
     fftw         :     19.20s CPU     20.74s WALL (   14570 calls)
     davcio       :      0.00s CPU      0.01s WALL (      51 calls)

     Parallel routines
     fft_scatter  :      0.48s CPU      0.49s WALL (   14580 calls)

     PWSCF        :    27.62s CPU        29.92s WALL


   This run was terminated on:  20:58: 1  13Feb2023            

=------------------------------------------------------------------------------=
   JOB DONE.
=------------------------------------------------------------------------------=
