
     Program PWSCF v.5.1 starts on 13Feb2023 at 20:56:50 

     This program is part of the open-source Quantum ESPRESSO suite
     for quantum simulation of materials; please cite
         "P. Giannozzi et al., J. Phys.:Condens. Matter 21 395502 (2009);
          URL http://www.quantum-espresso.org", 
     in publications or presentations arising from this work. More details at
     http://www.quantum-espresso.org/quote

     Parallel version (MPI), running on     1 processors
     Waiting for input...
     Reading input from standard input

     Current dimensions of program PWSCF are:
     Max number of different atomic species (ntypx) = 10
     Max number of k-points (npk) =  40000
     Max angular momentum in pseudopotentials (lmaxx) =  3

     Atomic positions and unit cell read from directory:
     ./out/Si.save/

               file Si.pbe-mt_fhi.UPF: wavefunction(s)  4f renormalized

     Subspace diagonalization in iterative solution of the eigenvalue problem:
     a serial algorithm will be used


     G-vector sticks info
     --------------------
     sticks:   dense  smooth     PW     G-vecs:    dense   smooth      PW
     Sum         733     733    223                12939    12939    2229



     bravais-lattice index     =            2
     lattice parameter (alat)  =      10.2623  a.u.
     unit-cell volume          =     270.1967 (a.u.)^3
     number of atoms/cell      =            2
     number of atomic types    =            1
     number of electrons       =         5.00
     number of Kohn-Sham states=           10
     kinetic-energy cutoff     =      50.0000  Ry
     charge density cutoff     =     200.0000  Ry
     Exchange-correlation      = PBE ( 1  4  3  4 0)

     celldm(1)=  10.262347  celldm(2)=   0.000000  celldm(3)=   0.000000
     celldm(4)=   0.000000  celldm(5)=   0.000000  celldm(6)=   0.000000

     crystal axes: (cart. coord. in units of alat)
               a(1) = (  -0.500000   0.000000   0.500000 )  
               a(2) = (   0.000000   0.500000   0.500000 )  
               a(3) = (  -0.500000   0.500000   0.000000 )  

     reciprocal axes: (cart. coord. in units 2 pi/alat)
               b(1) = ( -1.000000 -1.000000  1.000000 )  
               b(2) = (  1.000000  1.000000  1.000000 )  
               b(3) = ( -1.000000  1.000000 -1.000000 )  


     PseudoPot. # 1 for Si read from file:
     /home/acedemo/psudo/Si.pbe-mt_fhi.UPF
     MD5 check sum: 259057c2adf9952f9ced37ae3d9e311d
     Pseudo is Norm-conserving, Zval =  4.0
     Generated using FHI98PP, converted with fhi2upf.x v.5.0.2
     Using radial grid of  495 points,  3 beta functions with: 
                l(1) =   0
                l(2) =   1
                l(3) =   3

     atomic species   valence    mass     pseudopotential
        Si             4.00    28.08550     Si( 1.00)

     48 Sym. Ops., with inversion, found (24 have fractional translation)



   Cartesian axes

     site n.     atom                  positions (alat units)
         1           Si  tau(   1) = (   0.0000000   0.0000000   0.0000000  )
         2           Si  tau(   2) = (   0.2500000   0.2500000   0.2500000  )

     number of k points=    72 (tetrahedron method)
                       cart. coord. in units 2pi/alat
        k(    1) = (   0.0000000   0.0000000   0.0000000), wk =   0.0011574
        k(    2) = (  -0.0833333   0.0833333  -0.0833333), wk =   0.0092593
        k(    3) = (  -0.1666667   0.1666667  -0.1666667), wk =   0.0092593
        k(    4) = (  -0.2500000   0.2500000  -0.2500000), wk =   0.0092593
        k(    5) = (  -0.3333333   0.3333333  -0.3333333), wk =   0.0092593
        k(    6) = (  -0.4166667   0.4166667  -0.4166667), wk =   0.0092593
        k(    7) = (   0.5000000  -0.5000000   0.5000000), wk =   0.0046296
        k(    8) = (   0.0000000   0.1666667   0.0000000), wk =   0.0069444
        k(    9) = (  -0.0833333   0.2500000  -0.0833333), wk =   0.0277778
        k(   10) = (  -0.1666667   0.3333333  -0.1666667), wk =   0.0277778
        k(   11) = (  -0.2500000   0.4166667  -0.2500000), wk =   0.0277778
        k(   12) = (  -0.3333333   0.5000000  -0.3333333), wk =   0.0277778
        k(   13) = (   0.5833333  -0.4166667   0.5833333), wk =   0.0277778
        k(   14) = (   0.5000000  -0.3333333   0.5000000), wk =   0.0277778
        k(   15) = (   0.4166667  -0.2500000   0.4166667), wk =   0.0277778
        k(   16) = (   0.3333333  -0.1666667   0.3333333), wk =   0.0277778
        k(   17) = (   0.2500000  -0.0833333   0.2500000), wk =   0.0277778
        k(   18) = (   0.1666667  -0.0000000   0.1666667), wk =   0.0138889
        k(   19) = (   0.0000000   0.3333333   0.0000000), wk =   0.0069444
        k(   20) = (  -0.0833333   0.4166667  -0.0833333), wk =   0.0277778
        k(   21) = (  -0.1666667   0.5000000  -0.1666667), wk =   0.0277778
        k(   22) = (  -0.2500000   0.5833333  -0.2500000), wk =   0.0277778
        k(   23) = (   0.6666667  -0.3333333   0.6666667), wk =   0.0277778
        k(   24) = (   0.5833333  -0.2500000   0.5833333), wk =   0.0277778
        k(   25) = (   0.5000000  -0.1666667   0.5000000), wk =   0.0277778
        k(   26) = (   0.4166667  -0.0833333   0.4166667), wk =   0.0277778
        k(   27) = (   0.3333333   0.0000000   0.3333333), wk =   0.0138889
        k(   28) = (   0.0000000   0.5000000   0.0000000), wk =   0.0069444
        k(   29) = (  -0.0833333   0.5833333  -0.0833333), wk =   0.0277778
        k(   30) = (  -0.1666667   0.6666667  -0.1666667), wk =   0.0277778
        k(   31) = (   0.7500000  -0.2500000   0.7500000), wk =   0.0277778
        k(   32) = (   0.6666667  -0.1666667   0.6666667), wk =   0.0277778
        k(   33) = (   0.5833333  -0.0833333   0.5833333), wk =   0.0277778
        k(   34) = (   0.5000000   0.0000000   0.5000000), wk =   0.0138889
        k(   35) = (   0.0000000   0.6666667   0.0000000), wk =   0.0069444
        k(   36) = (  -0.0833333   0.7500000  -0.0833333), wk =   0.0277778
        k(   37) = (   0.8333333  -0.1666667   0.8333333), wk =   0.0277778
        k(   38) = (   0.7500000  -0.0833333   0.7500000), wk =   0.0277778
        k(   39) = (   0.6666667   0.0000000   0.6666667), wk =   0.0138889
        k(   40) = (   0.0000000   0.8333333   0.0000000), wk =   0.0069444
        k(   41) = (   0.9166667  -0.0833333   0.9166667), wk =   0.0277778
        k(   42) = (   0.8333333   0.0000000   0.8333333), wk =   0.0138889
        k(   43) = (   0.0000000  -1.0000000   0.0000000), wk =   0.0034722
        k(   44) = (  -0.1666667   0.3333333   0.0000000), wk =   0.0277778
        k(   45) = (  -0.2500000   0.4166667  -0.0833333), wk =   0.0555556
        k(   46) = (  -0.3333333   0.5000000  -0.1666667), wk =   0.0555556
        k(   47) = (   0.5833333  -0.4166667   0.7500000), wk =   0.0555556
        k(   48) = (   0.5000000  -0.3333333   0.6666667), wk =   0.0277778
        k(   49) = (  -0.1666667   0.5000000   0.0000000), wk =   0.0277778
        k(   50) = (  -0.2500000   0.5833333  -0.0833333), wk =   0.0555556
        k(   51) = (   0.6666667  -0.3333333   0.8333333), wk =   0.0555556
        k(   52) = (   0.5833333  -0.2500000   0.7500000), wk =   0.0555556
        k(   53) = (   0.5000000  -0.1666667   0.6666667), wk =   0.0555556
        k(   54) = (   0.4166667  -0.0833333   0.5833333), wk =   0.0555556
        k(   55) = (   0.3333333   0.0000000   0.5000000), wk =   0.0277778
        k(   56) = (  -0.1666667   0.6666667  -0.0000000), wk =   0.0277778
        k(   57) = (   0.7500000  -0.2500000   0.9166667), wk =   0.0555556
        k(   58) = (   0.6666667  -0.1666667   0.8333333), wk =   0.0555556
        k(   59) = (   0.5833333  -0.0833333   0.7500000), wk =   0.0555556
        k(   60) = (   0.5000000   0.0000000   0.6666667), wk =   0.0277778
        k(   61) = (   0.8333333  -0.1666667   1.0000000), wk =   0.0277778
        k(   62) = (   0.7500000  -0.0833333   0.9166667), wk =   0.0555556
        k(   63) = (   0.6666667   0.0000000   0.8333333), wk =   0.0277778
        k(   64) = (  -0.1666667  -1.0000000   0.0000000), wk =   0.0138889
        k(   65) = (   0.6666667  -0.3333333   1.0000000), wk =   0.0277778
        k(   66) = (   0.5833333  -0.2500000   0.9166667), wk =   0.0555556
        k(   67) = (   0.5000000  -0.1666667   0.8333333), wk =   0.0277778
        k(   68) = (   0.6666667  -0.1666667   1.0000000), wk =   0.0277778
        k(   69) = (   0.5833333  -0.0833333   0.9166667), wk =   0.0555556
        k(   70) = (   0.5000000   0.0000000   0.8333333), wk =   0.0277778
        k(   71) = (  -0.3333333  -1.0000000   0.0000000), wk =   0.0138889
        k(   72) = (  -0.5000000  -1.0000000   0.0000000), wk =   0.0069444

     Dense  grid:    12939 G-vectors     FFT dimensions: (  36,  36,  36)

     Largest allocated arrays     est. size (Mb)     dimensions
        Kohn-Sham Wavefunctions         0.25 Mb     (    1639,   10)
        NL pseudopotentials             0.55 Mb     (    1639,   22)
        Each V/rho on FFT grid          0.71 Mb     (   46656)
        Each G-vector array             0.10 Mb     (   12939)
        G-vector shells                 0.00 Mb     (     180)
     Largest temporary arrays     est. size (Mb)     dimensions
        Auxiliary wavefunctions         1.00 Mb     (    1639,   40)
        Each subspace H/S matrix        0.02 Mb     (      40,   40)
        Each <psi_i|beta_j> matrix      0.00 Mb     (      22,   10)

     The potential is recalculated from file :
     ./out/Si.save/charge-density.dat

     Starting wfc are   32 randomized atomic wfcs

     Band Structure Calculation
     Davidson diagonalization with overlap

     ethr =  3.20E-11,  avg # of iterations = 16.2

     total cpu time spent up to now is       33.5 secs

     End of band structure calculation

          k = 0.0000 0.0000 0.0000 (  1639 PWs)   bands (ev):

    -5.3645   6.0723   6.0723   6.0723   9.3523   9.5137   9.5137   9.5137
    14.7399  14.7399

          k =-0.0833 0.0833-0.0833 (  1612 PWs)   bands (ev):

    -5.2789   5.3283   5.9678   5.9678   9.3563   9.6851   9.6851  10.1841
    14.5833  14.5833

          k =-0.1667 0.1667-0.1667 (  1591 PWs)   bands (ev):

    -5.0255   3.9438   5.7245   5.7245   9.1167  10.0770  10.0770  11.6589
    14.3545  14.3545

          k =-0.2500 0.2500-0.2500 (  1618 PWs)   bands (ev):

    -4.6181   2.5149   5.4569   5.4569   8.8339  10.4293  10.4293  13.2603
    14.4589  14.4589

          k =-0.3333 0.3333-0.3333 (  1616 PWs)   bands (ev):

    -4.0925   1.2173   5.2363   5.2363   8.5910  10.5677  10.5677  14.8059
    15.1236  15.1236

          k =-0.4167 0.4167-0.4167 (  1616 PWs)   bands (ev):

    -3.5517   0.2009   5.0954   5.0954   8.4321  10.5599  10.5599  15.8885
    16.2763  16.2763

          k = 0.5000-0.5000 0.5000 (  1622 PWs)   bands (ev):

    -3.2805  -0.2305   5.0473   5.0473   8.3772  10.5405  10.5405  16.0992
    17.4362  17.4362

          k = 0.0000 0.1667 0.0000 (  1615 PWs)   bands (ev):

    -5.2501   5.3798   5.7724   5.7724   9.3371   9.9611   9.9611  10.0094
    14.2223  14.8722

          k =-0.0833 0.2500-0.0833 (  1599 PWs)   bands (ev):

    -5.0519   4.2959   5.4833   5.6043   9.3507   9.8602  10.4332  11.2433
    13.8817  14.8998

          k =-0.1667 0.3333-0.1667 (  1610 PWs)   bands (ev):

    -4.6938   2.9297   5.2093   5.3399   9.3055  10.0344  10.8511  12.3598
    14.1381  15.0174

          k =-0.2500 0.4167-0.2500 (  1606 PWs)   bands (ev):

    -4.2013   1.6127   5.0099   5.0391   9.0975  10.3210  11.0139  13.1428
    15.2981  15.5970

          k =-0.3333 0.5000-0.3333 (  1616 PWs)   bands (ev):

    -3.6451   0.4986   4.7823   4.9105   8.9246  10.4382  10.9571  14.1711
    16.5613  16.6663

          k = 0.5833-0.4167 0.5833 (  1615 PWs)   bands (ev):

    -3.2369  -0.1680   4.6091   4.9179   8.8394  10.4981  10.8376  15.4368
    16.6169  17.4038

          k = 0.5000-0.3333 0.5000 (  1616 PWs)   bands (ev):

    -3.3342  -0.0179   4.5395   5.0279   8.8568  10.5950  10.7419  15.6851
    15.9811  16.7274

          k = 0.4167-0.2500 0.4167 (  1611 PWs)   bands (ev):

    -3.8309   0.8397   4.5846   5.2269   8.9754  10.6535  10.7088  14.5024
    14.7438  16.9943

          k = 0.3333-0.1667 0.3333 (  1605 PWs)   bands (ev):

    -4.3790   2.0369   4.7492   5.4889   9.1793  10.4619  10.6945  13.3211
    13.9893  15.7668

          k = 0.2500-0.0833 0.2500 (  1600 PWs)   bands (ev):

    -4.8309   3.3697   5.0361   5.7637   9.4275  10.1017  10.3533  12.2114
    13.8335  14.9428

          k = 0.1667-0.0000 0.1667 (  1592 PWs)   bands (ev):

    -5.1370   4.6100   5.4701   5.9602   9.5731   9.7560   9.8418  11.0447
    14.1300  14.7143

          k = 0.0000 0.3333 0.0000 (  1607 PWs)   bands (ev):

    -4.9089   4.0466   5.1639   5.1639   8.9325  10.8804  11.0085  11.0085
    13.6019  15.2685

          k =-0.0833 0.4167-0.0833 (  1616 PWs)   bands (ev):

    -4.6026   3.0624   4.8644   4.8736   8.9519  10.7007  11.5615  11.6641
    14.1129  15.5294

          k =-0.1667 0.5000-0.1667 (  1611 PWs)   bands (ev):

    -4.1506   1.8859   4.4900   4.6704   9.1656  10.7827  11.7963  11.8433
    15.4891  16.0747

          k =-0.2500 0.5833-0.2500 (  1610 PWs)   bands (ev):

    -3.6012   0.7795   4.1145   4.5796   9.2253  10.9782  11.8156  12.3217
    17.0572  17.0886

          k = 0.6667-0.3333 0.6667 (  1607 PWs)   bands (ev):

    -3.1011  -0.0337   3.8196   4.6083   9.2371  10.9938  11.6467  13.5196
    16.8841  17.3736

          k = 0.5833-0.2500 0.5833 (  1602 PWs)   bands (ev):

    -3.0107  -0.1647   3.6475   4.7511   9.3136  11.0227  11.4612  15.0296
    15.5869  15.8131

          k = 0.5000-0.1667 0.5000 (  1610 PWs)   bands (ev):

    -3.4310   0.4859   3.6278   4.9901   9.4699  11.1040  11.2646  14.1958
    14.5130  16.6149

          k = 0.4167-0.0833 0.4167 (  1613 PWs)   bands (ev):

    -3.9883   1.5021   3.7996   5.2897   9.6684  10.9495  11.0910  13.0609
    13.7177  17.5408

          k = 0.3333 0.0000 0.3333 (  1604 PWs)   bands (ev):

    -4.4771   2.5513   4.2484   5.5838   9.7803  10.4785  10.6789  12.5347
    13.5458  16.0245

          k = 0.0000 0.5000 0.0000 (  1612 PWs)   bands (ev):

    -4.3473   2.5990   4.5631   4.5631   8.5144  10.5022  12.3304  12.3304
    14.4239  15.9277

          k =-0.0833 0.5833-0.0833 (  1617 PWs)   bands (ev):

    -3.9401   1.7459   4.2011   4.3407   8.5900  10.2403  12.6442  12.8607
    15.6043  16.4596

          k =-0.1667 0.6667-0.1667 (  1620 PWs)   bands (ev):

    -3.4127   0.8088   3.7086   4.2354   8.8432  10.5910  12.5529  12.9720
    17.2424  17.4420

          k = 0.7500-0.2500 0.7500 (  1617 PWs)   bands (ev):

    -2.8624  -0.0074   3.2577   4.2567   8.9670  11.6539  12.4143  12.8163
    17.1239  17.4130

          k = 0.6667-0.1667 0.6667 (  1607 PWs)   bands (ev):

    -2.6004  -0.3489   2.9599   4.4012   9.1116  12.3191  12.5703  13.1318
    15.5562  15.7877

          k = 0.5833-0.0833 0.5833 (  1611 PWs)   bands (ev):

    -2.9224   0.0725   2.8871   4.6519   9.3415  12.2387  12.2770  14.0267
    14.4873  14.8322

          k = 0.5000 0.0000 0.5000 (  1604 PWs)   bands (ev):

    -3.4752   0.8228   3.1341   4.9717   9.6025  11.6660  11.9545  13.0442
    13.7967  16.5951

          k = 0.0000 0.6667 0.0000 (  1624 PWs)   bands (ev):

    -3.5765   1.1628   4.0928   4.0928   8.2307   9.5995  13.7946  13.7946
    16.0521  16.8475

          k =-0.0833 0.7500-0.0833 (  1618 PWs)   bands (ev):

    -3.0800   0.4167   3.7391   3.9612   8.3898   9.4332  14.1306  14.2563
    17.3369  17.6645

          k = 0.8333-0.1667 0.8333 (  1619 PWs)   bands (ev):

    -2.5111  -0.3034   3.2049   3.9591   8.6198  10.0718  14.0692  14.2147
    17.2976  17.5236

          k = 0.7500-0.0833 0.7500 (  1620 PWs)   bands (ev):

    -2.1218  -0.7314   2.7608   4.0861   8.7832  11.3756  13.9153  13.9555
    15.5976  15.9254

          k = 0.6667 0.0000 0.6667 (  1612 PWs)   bands (ev):

    -2.3822  -0.4481   2.6039   4.3282   9.0341  12.9930  13.2784  13.6950
    14.1335  14.8393

          k = 0.0000 0.8333 0.0000 (  1628 PWs)   bands (ev):

    -2.6133  -0.2106   3.7986   3.7986   8.1639   8.8435  15.3341  15.3341
    17.8104  18.0242

          k = 0.9167-0.0833 0.9167 (  1622 PWs)   bands (ev):

    -2.0460  -0.8622   3.5051   3.7656   8.3847   8.8872  15.6701  15.6933
    17.4641  17.6389

          k = 0.8333 0.0000 0.8333 (  1614 PWs)   bands (ev):

    -1.6670  -1.2217   3.0350   3.8648   8.5428   9.8839  15.1871  15.5910
    15.8020  16.3955

          k = 0.0000-1.0000 0.0000 (  1604 PWs)   bands (ev):

    -1.4812  -1.4812   3.6989   3.6989   8.3607   8.3607  16.5323  16.5323
    17.6372  17.6372

          k =-0.1667 0.3333 0.0000 (  1603 PWs)   bands (ev):

    -4.8002   3.4845   4.8590   5.4979   9.4191  10.1159  10.8853  11.8197
    13.7998  15.1963

          k =-0.2500 0.4167-0.0833 (  1607 PWs)   bands (ev):

    -4.3947   2.3451   4.3981   5.2723   9.6162  10.2257  11.3409  12.1638
    14.2591  16.0001

          k =-0.3333 0.5000-0.1667 (  1604 PWs)   bands (ev):

    -3.8699   1.1733   4.1299   5.0046   9.5468  10.4350  11.4964  12.7628
    15.1410  17.3583

          k = 0.5833-0.4167 0.7500 (  1612 PWs)   bands (ev):

    -3.3254   0.2079   3.9926   4.8014   9.4396  10.4697  11.4870  13.8654
    16.3436  16.7466

          k = 0.5000-0.3333 0.6667 (  1602 PWs)   bands (ev):

    -3.0485  -0.2136   3.9516   4.7260   9.3983  10.4561  11.4660  15.2477
    15.3043  17.3169

          k =-0.1667 0.5000 0.0000 (  1617 PWs)   bands (ev):

    -4.2468   2.2686   4.2638   4.7672   9.0225  10.6795  11.7062  12.2520
    14.7952  16.1908

          k =-0.2500 0.5833-0.0833 (  1611 PWs)   bands (ev):

    -3.7562   1.2998   3.8122   4.5409   9.3445  10.8713  11.5632  12.7016
    15.6292  17.5333

          k = 0.6667-0.3333 0.8333 (  1617 PWs)   bands (ev):

    -3.1962   0.3657   3.4884   4.3713   9.4954  11.1409  11.9693  12.7852
    16.8056  16.9085

          k = 0.5833-0.2500 0.7500 (  1607 PWs)   bands (ev):

    -2.7780  -0.2334   3.2719   4.3533   9.5953  10.9910  12.6674  13.3564
    15.2487  17.5416

          k = 0.5000-0.1667 0.6667 (  1605 PWs)   bands (ev):

    -2.8924  -0.0754   3.1882   4.4903   9.7588  10.8665  12.5875  13.7370
    14.9572  16.1993

          k = 0.4167-0.0833 0.5833 (  1610 PWs)   bands (ev):

    -3.4045   0.6823   3.2917   4.7437   9.9780  10.7096  12.3120  12.6792
    14.9700  16.6636

          k = 0.3333 0.0000 0.5000 (  1606 PWs)   bands (ev):

    -3.9504   1.5806   3.6711   5.0442  10.1767  10.2354  12.0046  12.0556
    14.3359  17.5994

          k =-0.1667 0.6667-0.0000 (  1626 PWs)   bands (ev):

    -3.4900   1.0064   3.8127   4.1345   8.7450   9.9870  12.7560  13.7613
    16.2571  17.5728

          k = 0.7500-0.2500 0.9167 (  1621 PWs)   bands (ev):

    -2.9379   0.2214   3.3615   3.9672   9.1024  10.3700  12.5558  14.1817
    17.0679  17.2254

          k = 0.6667-0.1667 0.8333 (  1616 PWs)   bands (ev):

    -2.4252  -0.4145   2.9500   3.9707   9.2768  11.5293  12.3180  14.1595
    15.3602  17.6120

          k = 0.5833-0.0833 0.7500 (  1614 PWs)   bands (ev):

    -2.3800  -0.4630   2.7261   4.1320   9.4825  12.0818  13.0830  13.6052
    14.1593  16.1751

          k = 0.5000 0.0000 0.6667 (  1621 PWs)   bands (ev):

    -2.8536   0.0805   2.8068   4.4117   9.7636  11.6162  12.6020  13.5705
    14.8536  15.1682

          k = 0.8333-0.1667 1.0000 (  1617 PWs)   bands (ev):

    -2.5504  -0.2550   3.5562   3.7101   8.6684   9.2851  14.1295  15.3241
    17.3707  17.7311

          k = 0.7500-0.0833 0.9167 (  1620 PWs)   bands (ev):

    -1.9852  -0.8646   3.1103   3.6780   8.9880   9.9805  13.9048  15.2836
    15.9819  17.5713

          k = 0.6667 0.0000 0.8333 (  1620 PWs)   bands (ev):

    -1.8876  -0.9416   2.7382   3.8421   9.1889  11.3805  13.4733  13.9390
    15.4334  16.4533

          k =-0.1667-1.0000 0.0000 (  1622 PWs)   bands (ev):

    -1.4582  -1.4582   3.5180   3.5180   8.8404   8.8404  15.5737  15.5737
    17.1812  17.1812

          k = 0.6667-0.3333 1.0000 (  1610 PWs)   bands (ev):

    -3.2395   0.6009   3.2664   4.2660   9.9930  10.9055  11.3031  13.6735
    15.8069  16.8229

          k = 0.5833-0.2500 0.9167 (  1611 PWs)   bands (ev):

    -2.6832  -0.1102   2.9712   4.0084  10.3911  10.8749  11.8643  14.1321
    15.0360  16.6984

          k = 0.5000-0.1667 0.8333 (  1610 PWs)   bands (ev):

    -2.3777  -0.4777   2.8836   3.9072  10.5118  10.7128  13.1795  13.4143
    14.2607  17.7531

          k = 0.6667-0.1667 1.0000 (  1618 PWs)   bands (ev):

    -2.3768  -0.4006   3.0972   3.6020   9.9178  10.4453  12.2741  15.0466
    15.5411  17.3560

          k = 0.5833-0.0833 0.9167 (  1615 PWs)   bands (ev):

    -1.9182  -0.8736   2.8657   3.4826  10.2859  11.5386  12.0091  13.4210
    15.8135  17.6542

          k = 0.5000 0.0000 0.8333 (  1612 PWs)   bands (ev):

    -2.1362  -0.6467   2.7680   3.6618  10.5419  11.5695  12.0620  13.1993
    15.3922  16.8982

          k =-0.3333-1.0000 0.0000 (  1618 PWs)   bands (ev):

    -1.4103  -1.4103   3.2023   3.2023  10.0601  10.0601  13.6338  13.6338
    17.0979  17.0979

          k =-0.5000-1.0000 0.0000 (  1628 PWs)   bands (ev):

    -1.3854  -1.3854   3.0607   3.0607  11.6032  11.6032  11.8411  11.8411
    17.0891  17.0891

     the Fermi energy is     3.5956 ev

     Writing output data file Si.save

     init_run     :      0.27s CPU      0.29s WALL (       1 calls)
     electrons    :     31.59s CPU     32.71s WALL (       1 calls)

     Called by init_run:
     wfcinit      :      0.00s CPU      0.00s WALL (       1 calls)
     potinit      :      0.08s CPU      0.08s WALL (       1 calls)

     Called by electrons:
     c_bands      :     31.48s CPU     32.60s WALL (       1 calls)
     v_of_rho     :      0.07s CPU      0.07s WALL (       1 calls)

     Called by c_bands:
     init_us_2    :      0.10s CPU      0.11s WALL (      72 calls)
     cegterg      :     24.17s CPU     25.09s WALL (      79 calls)

     Called by *egterg:
     h_psi        :     26.51s CPU     27.46s WALL (    1317 calls)
     g_psi        :      0.07s CPU      0.07s WALL (    1166 calls)
     cdiaghg      :      0.48s CPU      0.49s WALL (    1238 calls)

     Called by h_psi:
     add_vuspsi   :      0.73s CPU      0.76s WALL (    1317 calls)

     General routines
     calbec       :      0.86s CPU      0.89s WALL (    1317 calls)
     fft          :      0.03s CPU      0.03s WALL (      10 calls)
     fftw         :     23.60s CPU     24.44s WALL (   21058 calls)
     davcio       :      0.00s CPU      0.01s WALL (      72 calls)

     Parallel routines
     fft_scatter  :      0.59s CPU      0.61s WALL (   21068 calls)

     PWSCF        :    33.67s CPU        34.84s WALL


   This run was terminated on:  20:57:24  13Feb2023            

=------------------------------------------------------------------------------=
   JOB DONE.
=------------------------------------------------------------------------------=
