
     Program PWSCF v.5.1 starts on 13Feb2023 at 20:56:32 

     This program is part of the open-source Quantum ESPRESSO suite
     for quantum simulation of materials; please cite
         "P. Giannozzi et al., J. Phys.:Condens. Matter 21 395502 (2009);
          URL http://www.quantum-espresso.org", 
     in publications or presentations arising from this work. More details at
     http://www.quantum-espresso.org/quote

     Parallel version (MPI), running on     1 processors
     Waiting for input...
     Reading input from standard input

     Current dimensions of program PWSCF are:
     Max number of different atomic species (ntypx) = 10
     Max number of k-points (npk) =  40000
     Max angular momentum in pseudopotentials (lmaxx) =  3
               file Si.pbe-mt_fhi.UPF: wavefunction(s)  4f renormalized

     Subspace diagonalization in iterative solution of the eigenvalue problem:
     a serial algorithm will be used


     G-vector sticks info
     --------------------
     sticks:   dense  smooth     PW     G-vecs:    dense   smooth      PW
     Sum         733     733    211                12939    12939    2109



     bravais-lattice index     =            2
     lattice parameter (alat)  =      10.2623  a.u.
     unit-cell volume          =     270.1967 (a.u.)^3
     number of atoms/cell      =            2
     number of atomic types    =            1
     number of electrons       =         5.00
     number of Kohn-Sham states=           10
     kinetic-energy cutoff     =      50.0000  Ry
     charge density cutoff     =     200.0000  Ry
     convergence threshold     =      1.6E-09
     mixing beta               =       0.3000
     number of iterations used =            8  plain     mixing
     Exchange-correlation      = PBE ( 1  4  3  4 0)

     celldm(1)=  10.262347  celldm(2)=   0.000000  celldm(3)=   0.000000
     celldm(4)=   0.000000  celldm(5)=   0.000000  celldm(6)=   0.000000

     crystal axes: (cart. coord. in units of alat)
               a(1) = (  -0.500000   0.000000   0.500000 )  
               a(2) = (   0.000000   0.500000   0.500000 )  
               a(3) = (  -0.500000   0.500000   0.000000 )  

     reciprocal axes: (cart. coord. in units 2 pi/alat)
               b(1) = ( -1.000000 -1.000000  1.000000 )  
               b(2) = (  1.000000  1.000000  1.000000 )  
               b(3) = ( -1.000000  1.000000 -1.000000 )  


     PseudoPot. # 1 for Si read from file:
     /home/acedemo/psudo/Si.pbe-mt_fhi.UPF
     MD5 check sum: 259057c2adf9952f9ced37ae3d9e311d
     Pseudo is Norm-conserving, Zval =  4.0
     Generated using FHI98PP, converted with fhi2upf.x v.5.0.2
     Using radial grid of  495 points,  3 beta functions with: 
                l(1) =   0
                l(2) =   1
                l(3) =   3

     atomic species   valence    mass     pseudopotential
        Si             4.00    28.08550     Si( 1.00)

     48 Sym. Ops., with inversion, found (24 have fractional translation)



   Cartesian axes

     site n.     atom                  positions (alat units)
         1           Si  tau(   1) = (   0.0000000   0.0000000   0.0000000  )
         2           Si  tau(   2) = (   0.2500000   0.2500000   0.2500000  )

     number of k points=    10  Marzari-Vanderbilt smearing, width (Ry)=  0.0500
                       cart. coord. in units 2pi/alat
        k(    1) = (   0.0000000   0.0000000   0.0000000), wk =   0.0160000
        k(    2) = (  -0.2000000   0.2000000  -0.2000000), wk =   0.1280000
        k(    3) = (  -0.4000000   0.4000000  -0.4000000), wk =   0.1280000
        k(    4) = (   0.0000000   0.4000000   0.0000000), wk =   0.0960000
        k(    5) = (  -0.2000000   0.6000000  -0.2000000), wk =   0.3840000
        k(    6) = (   0.6000000  -0.2000000   0.6000000), wk =   0.3840000
        k(    7) = (   0.4000000   0.0000000   0.4000000), wk =   0.1920000
        k(    8) = (   0.0000000   0.8000000   0.0000000), wk =   0.0960000
        k(    9) = (   0.8000000   0.0000000   0.8000000), wk =   0.1920000
        k(   10) = (   0.6000000  -0.2000000   1.0000000), wk =   0.3840000

     Dense  grid:    12939 G-vectors     FFT dimensions: (  36,  36,  36)

     Largest allocated arrays     est. size (Mb)     dimensions
        Kohn-Sham Wavefunctions         0.25 Mb     (    1639,   10)
        NL pseudopotentials             0.55 Mb     (    1639,   22)
        Each V/rho on FFT grid          0.71 Mb     (   46656)
        Each G-vector array             0.10 Mb     (   12939)
        G-vector shells                 0.00 Mb     (     180)
     Largest temporary arrays     est. size (Mb)     dimensions
        Auxiliary wavefunctions         1.00 Mb     (    1639,   40)
        Each subspace H/S matrix        0.02 Mb     (      40,   40)
        Each <psi_i|beta_j> matrix      0.00 Mb     (      22,   10)
        Arrays for rho mixing           5.70 Mb     (   46656,    8)

     Initial potential from superposition of free atoms

     starting charge    7.99859, renormalised to    5.00000
     Starting wfc are   32 randomized atomic wfcs

     total cpu time spent up to now is        1.4 secs

     per-process dynamical memory:    15.9 Mb

     Self-consistent Calculation

     iteration #  1     ecut=    50.00 Ry     beta=0.30
     Davidson diagonalization with overlap
     ethr =  1.00E-02,  avg # of iterations =  2.2

     Threshold (ethr) on eigenvalues was too large:
     Diagonalizing with lowered threshold

     Davidson diagonalization with overlap
     ethr =  9.99E-04,  avg # of iterations =  1.0

     total cpu time spent up to now is        3.3 secs

     total energy              =     -16.73215404 Ry
     Harris-Foulkes estimate   =     -16.73727570 Ry
     estimated scf accuracy    <       0.04941608 Ry

     iteration #  2     ecut=    50.00 Ry     beta=0.30
     Davidson diagonalization with overlap
     ethr =  9.88E-04,  avg # of iterations =  1.0

     total cpu time spent up to now is        4.1 secs

     total energy              =     -16.72971050 Ry
     Harris-Foulkes estimate   =     -16.73232920 Ry
     estimated scf accuracy    <       0.02245032 Ry

     iteration #  3     ecut=    50.00 Ry     beta=0.30
     Davidson diagonalization with overlap
     ethr =  4.49E-04,  avg # of iterations =  1.0

     total cpu time spent up to now is        5.0 secs

     total energy              =     -16.73032269 Ry
     Harris-Foulkes estimate   =     -16.73024323 Ry
     estimated scf accuracy    <       0.00007116 Ry

     iteration #  4     ecut=    50.00 Ry     beta=0.30
     Davidson diagonalization with overlap
     ethr =  1.42E-06,  avg # of iterations =  3.0

     total cpu time spent up to now is        6.5 secs

     total energy              =     -16.73034843 Ry
     Harris-Foulkes estimate   =     -16.73034782 Ry
     estimated scf accuracy    <       0.00002446 Ry

     iteration #  5     ecut=    50.00 Ry     beta=0.30
     Davidson diagonalization with overlap
     ethr =  4.89E-07,  avg # of iterations =  1.0

     total cpu time spent up to now is        7.4 secs

     total energy              =     -16.73034992 Ry
     Harris-Foulkes estimate   =     -16.73034945 Ry
     estimated scf accuracy    <       0.00000005 Ry

     iteration #  6     ecut=    50.00 Ry     beta=0.30
     Davidson diagonalization with overlap
     ethr =  9.65E-10,  avg # of iterations =  3.0

     total cpu time spent up to now is        8.2 secs

     total energy              =     -16.73035025 Ry
     Harris-Foulkes estimate   =     -16.73035002 Ry
     estimated scf accuracy    <       0.00000002 Ry

     iteration #  7     ecut=    50.00 Ry     beta=0.30
     Davidson diagonalization with overlap
     ethr =  3.82E-10,  avg # of iterations =  2.0

     total cpu time spent up to now is        9.3 secs

     End of self-consistent calculation

          k = 0.0000 0.0000 0.0000 (  1639 PWs)   bands (ev):

    -5.3645   6.0724   6.0724   6.0724   9.3523   9.5137   9.5137   9.5137
    14.7399  14.7399

          k =-0.2000 0.2000-0.2000 (  1606 PWs)   bands (ev):

    -4.8797   3.3648   5.6153   5.6153   9.0031  10.2374  10.2374  12.2965
    14.3371  14.3371

          k =-0.4000 0.4000-0.4000 (  1616 PWs)   bands (ev):

    -3.6510   0.3706   5.1165   5.1165   8.4560  10.5658  10.5658  15.7509
    16.0168  16.0168

          k = 0.0000 0.4000 0.0000 (  1607 PWs)   bands (ev):

    -4.7102   3.4710   4.9131   4.9131   8.7568  10.8840  11.5146  11.5146
    13.7452  15.5008

          k =-0.2000 0.6000-0.2000 (  1619 PWs)   bands (ev):

    -3.6565   1.0397   3.9805   4.4468   9.0860  11.1565  11.8350  12.2701
    16.8416  17.0117

          k = 0.6000-0.2000 0.6000 (  1596 PWs)   bands (ev):

    -2.8976  -0.1656   3.3038   4.6549   9.3120  11.4739  11.8227  14.5889
    15.2674  15.4922

          k = 0.4000 0.0000 0.4000 (  1610 PWs)   bands (ev):

    -4.1085   1.8095   3.7611   5.3586   9.7788  10.8992  11.1363  12.7083
    13.5390  17.2556

          k = 0.0000 0.8000 0.0000 (  1624 PWs)   bands (ev):

    -2.8203   0.0572   3.8423   3.8423   8.1574   8.9743  15.0246  15.0246
    17.4596  17.7685

          k = 0.8000 0.0000 0.8000 (  1622 PWs)   bands (ev):

    -1.7620  -1.1077   2.8750   3.9361   8.6203  10.4332  14.7971  15.2962
    15.3521  16.0621

          k = 0.6000-0.2000 1.0000 (  1616 PWs)   bands (ev):

    -2.4562  -0.3095   2.9389   3.7338  10.5423  11.1457  11.3279  14.6409
    15.0937  16.8793

     the Fermi energy is     3.5807 ev

!    total energy              =     -16.73035028 Ry
     Harris-Foulkes estimate   =     -16.73035027 Ry
     estimated scf accuracy    <          1.2E-09 Ry

     The total energy is the sum of the following terms:

     one-electron contribution =       2.20195956 Ry
     hartree contribution      =       0.57038082 Ry
     xc contribution           =      -2.69590932 Ry
     ewald contribution        =     -16.79708774 Ry
     smearing contrib. (-TS)   =      -0.00969361 Ry

     convergence has been achieved in   7 iterations

     Forces acting on atoms (Ry/au):

     atom    1 type  1   force =     0.00000000    0.00000000    0.00000000
     atom    2 type  1   force =     0.00000000    0.00000000    0.00000000

     Total force =     0.000000     Total SCF correction =     0.000000


     entering subroutine stress ...

          total   stress  (Ry/bohr**3)                   (kbar)     P=-1070.32
  -0.00727591  -0.00000000   0.00000000      -1070.32     -0.00      0.00
  -0.00000000  -0.00727591   0.00000000         -0.00  -1070.32      0.00
   0.00000000   0.00000000  -0.00727591          0.00      0.00  -1070.32


     Writing output data file Si.save

     init_run     :      1.33s CPU      1.38s WALL (       1 calls)
     electrons    :      7.27s CPU      7.87s WALL (       1 calls)
     forces       :      0.08s CPU      0.08s WALL (       1 calls)
     stress       :      0.62s CPU      0.65s WALL (       1 calls)

     Called by init_run:
     wfcinit      :      1.18s CPU      1.20s WALL (       1 calls)
     potinit      :      0.05s CPU      0.06s WALL (       1 calls)

     Called by electrons:
     c_bands      :      5.77s CPU      6.31s WALL (       8 calls)
     sum_band     :      1.17s CPU      1.21s WALL (       8 calls)
     v_of_rho     :      0.34s CPU      0.36s WALL (       8 calls)
     mix_rho      :      0.02s CPU      0.02s WALL (       8 calls)

     Called by c_bands:
     init_us_2    :      0.28s CPU      0.29s WALL (     190 calls)
     cegterg      :      5.53s CPU      6.05s WALL (      80 calls)

     Called by *egterg:
     h_psi        :      6.03s CPU      6.52s WALL (     232 calls)
     g_psi        :      0.01s CPU      0.01s WALL (     142 calls)
     cdiaghg      :      0.06s CPU      0.06s WALL (     212 calls)

     Called by h_psi:
     add_vuspsi   :      0.16s CPU      0.18s WALL (     232 calls)

     General routines
     calbec       :      0.20s CPU      0.23s WALL (     252 calls)
     fft          :      0.14s CPU      0.15s WALL (      97 calls)
     fftw         :      6.21s CPU      6.63s WALL (    5100 calls)
     davcio       :      0.00s CPU      0.01s WALL (      10 calls)

     Parallel routines
     fft_scatter  :      0.17s CPU      0.19s WALL (    5197 calls)

     PWSCF        :     9.42s CPU        10.14s WALL


   This run was terminated on:  20:56:42  13Feb2023            

=------------------------------------------------------------------------------=
   JOB DONE.
=------------------------------------------------------------------------------=
