
     Program PWSCF v.5.1 starts on 12Feb2023 at 22:27:11 

     This program is part of the open-source Quantum ESPRESSO suite
     for quantum simulation of materials; please cite
         "P. Giannozzi et al., J. Phys.:Condens. Matter 21 395502 (2009);
          URL http://www.quantum-espresso.org", 
     in publications or presentations arising from this work. More details at
     http://www.quantum-espresso.org/quote

     Parallel version (MPI), running on     1 processors
     Waiting for input...
     Reading input from standard input

     Current dimensions of program PWSCF are:
     Max number of different atomic species (ntypx) = 10
     Max number of k-points (npk) =  40000
     Max angular momentum in pseudopotentials (lmaxx) =  3

     Atomic positions and unit cell read from directory:
     ./out/Si.save/

               file Si.pbe-mt_fhi.UPF: wavefunction(s)  4f renormalized
               file B.pbe-mt_fhi.UPF: wavefunction(s)  4f renormalized

     Subspace diagonalization in iterative solution of the eigenvalue problem:
     a serial algorithm will be used


     G-vector sticks info
     --------------------
     sticks:   dense  smooth     PW     G-vecs:    dense   smooth      PW
     Sum         733     733    211                12939    12939    2109



     bravais-lattice index     =            2
     lattice parameter (alat)  =      10.2623  a.u.
     unit-cell volume          =     270.1967 (a.u.)^3
     number of atoms/cell      =            2
     number of atomic types    =            2
     number of electrons       =         7.00
     number of Kohn-Sham states=           10
     kinetic-energy cutoff     =      50.0000  Ry
     charge density cutoff     =     200.0000  Ry
     Exchange-correlation      = PBE ( 1  4  3  4 0)

     celldm(1)=  10.262347  celldm(2)=   0.000000  celldm(3)=   0.000000
     celldm(4)=   0.000000  celldm(5)=   0.000000  celldm(6)=   0.000000

     crystal axes: (cart. coord. in units of alat)
               a(1) = (  -0.500000   0.000000   0.500000 )  
               a(2) = (   0.000000   0.500000   0.500000 )  
               a(3) = (  -0.500000   0.500000   0.000000 )  

     reciprocal axes: (cart. coord. in units 2 pi/alat)
               b(1) = ( -1.000000 -1.000000  1.000000 )  
               b(2) = (  1.000000  1.000000  1.000000 )  
               b(3) = ( -1.000000  1.000000 -1.000000 )  


     PseudoPot. # 1 for Si read from file:
     /home/acedemo/psudo/Si.pbe-mt_fhi.UPF
     MD5 check sum: 259057c2adf9952f9ced37ae3d9e311d
     Pseudo is Norm-conserving, Zval =  4.0
     Generated using FHI98PP, converted with fhi2upf.x v.5.0.2
     Using radial grid of  495 points,  3 beta functions with: 
                l(1) =   0
                l(2) =   1
                l(3) =   3

     PseudoPot. # 2 for  B read from file:
     /home/acedemo/psudo/B.pbe-mt_fhi.UPF
     MD5 check sum: 3ba04917d1d3a8de85490f79a9c37fe5
     Pseudo is Norm-conserving + core correction, Zval =  3.0
     Generated using FHI98PP, converted with fhi2upf.x v.5.0.2
     Using radial grid of  453 points,  3 beta functions with: 
                l(1) =   0
                l(2) =   1
                l(3) =   3

     atomic species   valence    mass     pseudopotential
        Si             4.00    28.08550     Si( 1.00)
        B              3.00    10.81100      B( 1.00)

     24 Sym. Ops. (no inversion) found



   Cartesian axes

     site n.     atom                  positions (alat units)
         1           Si  tau(   1) = (   0.0000000   0.0000000   0.0000000  )
         2           B   tau(   2) = (   0.2500000   0.2500000   0.2500000  )

     number of k points=    51  Marzari-Vanderbilt smearing, width (Ry)=  0.0500
                       cart. coord. in units 2pi/alat
        k(    1) = (   0.5000000   0.5000000   0.5000000), wk =   0.0000000
        k(    2) = (   0.4500000   0.4500000   0.4500000), wk =   0.0014779
        k(    3) = (   0.4000000   0.4000000   0.4000000), wk =   0.0029558
        k(    4) = (   0.3500000   0.3500000   0.3500000), wk =   0.0044337
        k(    5) = (   0.3000000   0.3000000   0.3000000), wk =   0.0059116
        k(    6) = (   0.2500000   0.2500000   0.2500000), wk =   0.0073895
        k(    7) = (   0.2000000   0.2000000   0.2000000), wk =   0.0088674
        k(    8) = (   0.1500000   0.1500000   0.1500000), wk =   0.0103453
        k(    9) = (   0.1000000   0.1000000   0.1000000), wk =   0.0118232
        k(   10) = (   0.0500000   0.0500000   0.0500000), wk =   0.0133011
        k(   11) = (   0.0000000   0.0000000   0.0000000), wk =   0.0147790
        k(   12) = (   0.0000000   0.1000000   0.0000000), wk =   0.0168691
        k(   13) = (   0.0000000   0.2000000   0.0000000), wk =   0.0189591
        k(   14) = (   0.0000000   0.3000000   0.0000000), wk =   0.0210492
        k(   15) = (   0.0000000   0.4000000   0.0000000), wk =   0.0231392
        k(   16) = (   0.0000000   0.5000000   0.0000000), wk =   0.0252293
        k(   17) = (   0.0000000   0.6000000   0.0000000), wk =   0.0273194
        k(   18) = (   0.0000000   0.7000000   0.0000000), wk =   0.0294094
        k(   19) = (   0.0000000   0.8000000   0.0000000), wk =   0.0314995
        k(   20) = (   0.0000000   0.9000000   0.0000000), wk =   0.0335896
        k(   21) = (   0.0000000   1.0000000   0.0000000), wk =   0.0356796
        k(   22) = (   0.0000000   0.9750000   0.0750000), wk =   0.0370621
        k(   23) = (   0.0000000   0.9500000   0.1500000), wk =   0.0384445
        k(   24) = (  -0.0000000   0.9250000   0.2250000), wk =   0.0398270
        k(   25) = (  -0.0000000   0.9000000   0.3000000), wk =   0.0412094
        k(   26) = (   0.0000000   0.8750000   0.3750000), wk =   0.0425919
        k(   27) = (   0.0000000   0.8500000   0.4500000), wk =   0.0439743
        k(   28) = (   0.0000000   0.8250000   0.5250000), wk =   0.0453568
        k(   29) = (  -0.0000000   0.8000000   0.6000000), wk =   0.0467392
        k(   30) = (  -0.0000000   0.7750000   0.6750000), wk =   0.0481217
        k(   31) = (   0.0000000   0.7500000   0.7500000), wk =   0.0495041
        k(   32) = (   0.0000000   0.7250000   0.7750000), wk =   0.0500266
        k(   33) = (   0.0000000   0.7000000   0.8000000), wk =   0.0505491
        k(   34) = (   0.0000000   0.6750000   0.8250000), wk =   0.0510717
        k(   35) = (   0.0000000   0.6500000   0.8500000), wk =   0.0515942
        k(   36) = (   0.0000000   0.6250000   0.8750000), wk =   0.0521167
        k(   37) = (   0.0000000   0.6000000   0.9000000), wk =   0.0526392
        k(   38) = (   0.0000000   0.5750000   0.9250000), wk =   0.0531617
        k(   39) = (   0.0000000   0.5500000   0.9500000), wk =   0.0536842
        k(   40) = (   0.0000000   0.5250000   0.9750000), wk =   0.0542067
        k(   41) = (   0.0000000   0.5000000   1.0000000), wk =   0.0547293
        k(   42) = (   0.0000000   0.4500000   0.9000000), wk =   0.0574942
        k(   43) = (  -0.0000000   0.4000000   0.8000000), wk =   0.0602591
        k(   44) = (  -0.0000000   0.3500000   0.7000000), wk =   0.0630239
        k(   45) = (  -0.0000000   0.3000000   0.6000000), wk =   0.0657888
        k(   46) = (   0.0000000   0.2500000   0.5000000), wk =   0.0685537
        k(   47) = (   0.0000000   0.2000000   0.4000000), wk =   0.0713186
        k(   48) = (   0.0000000   0.1500000   0.3000000), wk =   0.0740835
        k(   49) = (  -0.0000000   0.1000000   0.2000000), wk =   0.0768484
        k(   50) = (  -0.0000000   0.0500000   0.1000000), wk =   0.0796133
        k(   51) = (   0.0000000   0.0000000   0.0000000), wk =   0.0823782

     Dense  grid:    12939 G-vectors     FFT dimensions: (  36,  36,  36)

     Largest allocated arrays     est. size (Mb)     dimensions
        Kohn-Sham Wavefunctions         0.25 Mb     (    1639,   10)
        NL pseudopotentials             0.55 Mb     (    1639,   22)
        Each V/rho on FFT grid          0.71 Mb     (   46656)
        Each G-vector array             0.10 Mb     (   12939)
        G-vector shells                 0.00 Mb     (     180)
     Largest temporary arrays     est. size (Mb)     dimensions
        Auxiliary wavefunctions         1.00 Mb     (    1639,   40)
        Each subspace H/S matrix        0.02 Mb     (      40,   40)
        Each <psi_i|beta_j> matrix      0.00 Mb     (      22,   10)

     Check: negative/imaginary core charge=   -0.000048    0.000000

     The potential is recalculated from file :
     ./out/Si.save/charge-density.dat

     Starting wfc are   32 randomized atomic wfcs

     Band Structure Calculation
     Davidson diagonalization with overlap

     ethr =  2.29E-11,  avg # of iterations = 22.1

     total cpu time spent up to now is       36.0 secs

     End of band structure calculation

          k = 0.5000 0.5000 0.5000 (  1622 PWs)   bands (ev):

    -4.6842  -2.1127   3.1235   3.1235   5.7005   8.1865   8.1865  11.3540
    14.4299  15.2739

          k = 0.4500 0.4500 0.4500 (  1610 PWs)   bands (ev):

    -4.8067  -1.9339   3.1412   3.1412   5.7181   8.1906   8.1906  11.3017
    14.2539  14.9706

          k = 0.4000 0.4000 0.4000 (  1616 PWs)   bands (ev):

    -5.0990  -1.4735   3.1938   3.1938   5.7705   8.1970   8.1970  11.1240
    13.9526  14.3910

          k = 0.3500 0.3500 0.3500 (  1610 PWs)   bands (ev):

    -5.4494  -0.8455   3.2803   3.2803   5.8562   8.1882   8.1882  10.7863
    13.7568  13.8338

          k = 0.3000 0.3000 0.3000 (  1615 PWs)   bands (ev):

    -5.7952  -0.1168   3.3983   3.3983   5.9724   8.1387   8.1387  10.2944
    13.4098  13.4098

          k = 0.2500 0.2500 0.2500 (  1618 PWs)   bands (ev):

    -6.1076   0.6768   3.5434   3.5434   6.1135   8.0252   8.0252   9.6948
    13.1725  13.1725

          k = 0.2000 0.2000 0.2000 (  1606 PWs)   bands (ev):

    -6.3729   1.5105   3.7080   3.7080   6.2686   7.8435   7.8435   9.0354
    13.1402  13.1402

          k = 0.1500 0.1500 0.1500 (  1600 PWs)   bands (ev):

    -6.5839   2.3582   3.8795   3.8795   6.4162   7.6179   7.6179   8.3554
    13.2792  13.2955

          k = 0.1000 0.1000 0.1000 (  1606 PWs)   bands (ev):

    -6.7368   3.1786   4.0373   4.0373   6.5074   7.3947   7.3947   7.7162
    12.8355  13.5872

          k = 0.0500 0.0500 0.0500 (  1630 PWs)   bands (ev):

    -6.8293   3.8769   4.1528   4.1528   6.4344   7.2286   7.2286   7.2803
    12.4971  13.9172

          k = 0.0000 0.0000 0.0000 (  1639 PWs)   bands (ev):

    -6.8602   4.1959   4.1959   4.1959   6.2974   7.1667   7.1667   7.1667
    12.3729  14.0839

          k = 0.0000 0.1000 0.0000 (  1627 PWs)   bands (ev):

    -6.8189   3.9134   4.0638   4.0638   6.5138   7.1110   7.3395   7.3395
    12.5382  13.6273

          k = 0.0000 0.2000 0.0000 (  1599 PWs)   bands (ev):

    -6.6954   3.2899   3.7412   3.7412   6.6781   7.2174   7.7833   7.7833
    12.7667  13.0106

          k = 0.0000 0.3000 0.0000 (  1607 PWs)   bands (ev):

    -6.4905   2.5470   3.3441   3.3441   6.4381   7.6089   8.3786   8.3786
    12.0202  13.6682

          k = 0.0000 0.4000 0.0000 (  1607 PWs)   bands (ev):

    -6.2057   1.7598   2.9442   2.9442   6.1363   7.7872   9.0484   9.0484
    11.6191  14.4498

          k = 0.0000 0.5000 0.0000 (  1612 PWs)   bands (ev):

    -5.8431   0.9545   2.5773   2.5773   5.8579   7.6041   9.7493   9.7493
    11.6896  15.2150

          k = 0.0000 0.6000 0.0000 (  1620 PWs)   bands (ev):

    -5.4061   0.1442   2.2624   2.2624   5.6343   7.1860  10.4501  10.4501
    12.0972  15.6909

          k = 0.0000 0.7000 0.0000 (  1632 PWs)   bands (ev):

    -4.8989  -0.6608   2.0098   2.0098   5.4822   6.7171  11.1183  11.1183
    12.6399  16.2245

          k = 0.0000 0.8000 0.0000 (  1624 PWs)   bands (ev):

    -4.3286  -1.4484   1.8258   1.8258   5.4090   6.3022  11.7048  11.7048
    13.1782  16.5415

          k = 0.0000 0.9000 0.0000 (  1608 PWs)   bands (ev):

    -3.7114  -2.1981   1.7141   1.7141   5.4075   5.9975  12.1293  12.1293
    13.5950  16.4963

          k = 0.0000 1.0000 0.0000 (  1604 PWs)   bands (ev):

    -3.2284  -2.7256   1.6767   1.6767   5.4280   5.8731  12.2890  12.2890
    13.7588  16.4464

          k = 0.0000 0.9750 0.0750 (  1618 PWs)   bands (ev):

    -3.2764  -2.6607   1.6214   1.6281   5.5362   5.9896  12.1611  12.2424
    13.6766  16.3377

          k = 0.0000 0.9500 0.1500 (  1622 PWs)   bands (ev):

    -3.3727  -2.5173   1.4690   1.5127   5.8417   6.3151  11.7640  12.1043
    13.4843  16.0993

          k =-0.0000 0.9250 0.2250 (  1622 PWs)   bands (ev):

    -3.4673  -2.3580   1.2582   1.3893   6.3013   6.7975  11.1214  11.8782
    13.2615  15.8072

          k =-0.0000 0.9000 0.3000 (  1623 PWs)   bands (ev):

    -3.5417  -2.2199   1.0303   1.3130   6.8685   7.3816  10.3286  11.5720
    13.0320  15.5236

          k = 0.0000 0.8750 0.3750 (  1614 PWs)   bands (ev):

    -3.5901  -2.1286   0.8162   1.3226   7.4929   8.0034   9.5099  11.2074
    12.7974  15.2681

          k = 0.0000 0.8500 0.4500 (  1612 PWs)   bands (ev):

    -3.6107  -2.0968   0.6365   1.4327   7.9528   8.4951   9.0295  10.8377
    12.5626  15.0223

          k = 0.0000 0.8250 0.5250 (  1611 PWs)   bands (ev):

    -3.6039  -2.1203   0.5042   1.6268   7.4890   9.0406   9.3302  10.6098
    12.3375  14.7777

          k =-0.0000 0.8000 0.6000 (  1614 PWs)   bands (ev):

    -3.5708  -2.1836   0.4277   1.8556   6.8164   9.2304   9.8402  10.7726
    12.1487  14.5661

          k =-0.0000 0.7750 0.6750 (  1621 PWs)   bands (ev):

    -3.5131  -2.2692   0.4120   2.0367   6.2907   8.9234  10.5138  11.0664
    12.0744  14.4734

          k = 0.0000 0.7500 0.7500 (  1624 PWs)   bands (ev):

    -3.4330  -2.3639   0.4591   2.0659   6.0419   8.5337  11.0256  11.1551
    12.2018  14.6138

          k = 0.0000 0.7250 0.7750 (  1616 PWs)   bands (ev):

    -3.4281  -2.3657   0.4634   2.0379   6.0848   8.5363  10.9158  11.2028
    12.2199  14.6447

          k = 0.0000 0.7000 0.8000 (  1621 PWs)   bands (ev):

    -3.4136  -2.3715   0.4762   1.9583   6.2092   8.5439  10.7258  11.2065
    12.2795  14.7312

          k = 0.0000 0.6750 0.8250 (  1620 PWs)   bands (ev):

    -3.3896  -2.3817   0.4975   1.8381   6.4043   8.5562  10.5103  11.1256
    12.3801  14.8583

          k = 0.0000 0.6500 0.8500 (  1616 PWs)   bands (ev):

    -3.3564  -2.3971   0.5271   1.6911   6.6561   8.5722  10.2822  10.9787
    12.5056  15.0078

          k = 0.0000 0.6250 0.8750 (  1616 PWs)   bands (ev):

    -3.3149  -2.4187   0.5650   1.5309   6.9506   8.5904  10.0491  10.7922
    12.6364  15.1635

          k = 0.0000 0.6000 0.9000 (  1613 PWs)   bands (ev):

    -3.2661  -2.4471   0.6108   1.3693   7.2744   8.6086   9.8167  10.5878
    12.7582  15.3127

          k = 0.0000 0.5750 0.9250 (  1615 PWs)   bands (ev):

    -3.2124  -2.4822   0.6643   1.2159   7.6129   8.6228   9.5916  10.3837
    12.8610  15.4468

          k = 0.0000 0.5500 0.9500 (  1615 PWs)   bands (ev):

    -3.1582  -2.5214   0.7252   1.0783   7.9453   8.6277   9.3843  10.1987
    12.9379  15.5601

          k = 0.0000 0.5250 0.9750 (  1615 PWs)   bands (ev):

    -3.1127  -2.5574   0.7924   0.9626   8.2255   8.6218   9.2183  10.0579
    12.9847  15.6445

          k = 0.0000 0.5000 1.0000 (  1628 PWs)   bands (ev):

    -3.0928  -2.5741   0.8514   0.8870   8.3419   8.6234   9.1476  10.0000
    13.0001  15.6791

          k = 0.0000 0.4500 0.9000 (  1616 PWs)   bands (ev):

    -3.3872  -2.3031   0.6854   1.2206   8.0470   8.4881   9.1343  10.5481
    12.7862  15.3207

          k =-0.0000 0.4000 0.8000 (  1616 PWs)   bands (ev):

    -3.9313  -1.7933   0.7438   1.6339   7.6795   8.2501   8.9983  11.2934
    12.5306  14.7987

          k =-0.0000 0.3500 0.7000 (  1618 PWs)   bands (ev):

    -4.5235  -1.1823   0.9941   2.0840   7.3508   8.0571   8.9448  11.0071
    12.8437  14.5466

          k =-0.0000 0.3000 0.6000 (  1609 PWs)   bands (ev):

    -5.0956  -0.4881   1.3879   2.5401   7.0888   7.9010   9.0012  10.3116
    12.7127  14.7605

          k = 0.0000 0.2500 0.5000 (  1610 PWs)   bands (ev):

    -5.6114   0.2821   1.8863   2.9729   6.9081   7.7419   9.1276   9.5823
    12.3046  14.6497

          k = 0.0000 0.2000 0.4000 (  1613 PWs)   bands (ev):

    -6.0504   1.1206   2.4532   3.3607   6.8111   7.5500   8.8839   9.1536
    12.0312  14.2393

          k = 0.0000 0.1500 0.3000 (  1607 PWs)   bands (ev):

    -6.4005   2.0131   3.0456   3.6912   6.7799   7.3351   8.2546   8.7897
    12.2002  13.8349

          k =-0.0000 0.1000 0.2000 (  1600 PWs)   bands (ev):

    -6.6547   2.9282   3.6023   3.9545   6.7353   7.1711   7.7166   8.0838
    12.8148  13.1312

          k =-0.0000 0.0500 0.1000 (  1623 PWs)   bands (ev):

    -6.8087   3.7707   4.0286   4.1318   6.5238   7.1482   7.3224   7.4093
    12.5776  13.6188

          k = 0.0000 0.0000 0.0000 (  1639 PWs)   bands (ev):

    -6.8602   4.1959   4.1959   4.1959   6.2974   7.1667   7.1667   7.1667
    12.3729  14.0839

     Writing output data file Si.save

     init_run     :      0.28s CPU      0.33s WALL (       1 calls)
     electrons    :     32.89s CPU     33.61s WALL (       1 calls)

     Called by init_run:
     wfcinit      :      0.00s CPU      0.00s WALL (       1 calls)
     potinit      :      0.06s CPU      0.07s WALL (       1 calls)

     Called by electrons:
     c_bands      :     32.89s CPU     33.61s WALL (       1 calls)
     v_of_rho     :      0.05s CPU      0.05s WALL (       1 calls)

     Called by c_bands:
     init_us_2    :      0.11s CPU      0.12s WALL (      51 calls)
     cegterg      :     25.95s CPU     26.51s WALL (      79 calls)

     Called by *egterg:
     h_psi        :     27.68s CPU     28.29s WALL (    1257 calls)
     g_psi        :      0.07s CPU      0.07s WALL (    1127 calls)
     cdiaghg      :      0.60s CPU      0.62s WALL (    1178 calls)

     Called by h_psi:
     add_vuspsi   :      0.77s CPU      0.79s WALL (    1257 calls)

     General routines
     calbec       :      0.88s CPU      0.89s WALL (    1257 calls)
     fft          :      0.03s CPU      0.03s WALL (      11 calls)
     fftw         :     24.62s CPU     25.18s WALL (   16058 calls)
     davcio       :      0.00s CPU      0.01s WALL (      51 calls)

     Parallel routines
     fft_scatter  :      0.60s CPU      0.60s WALL (   16069 calls)

     PWSCF        :    35.12s CPU        36.23s WALL


   This run was terminated on:  22:27:48  12Feb2023            

=------------------------------------------------------------------------------=
   JOB DONE.
=------------------------------------------------------------------------------=
