
     Program PWSCF v.5.1 starts on 12Feb2023 at 22:26: 4 

     This program is part of the open-source Quantum ESPRESSO suite
     for quantum simulation of materials; please cite
         "P. Giannozzi et al., J. Phys.:Condens. Matter 21 395502 (2009);
          URL http://www.quantum-espresso.org", 
     in publications or presentations arising from this work. More details at
     http://www.quantum-espresso.org/quote

     Parallel version (MPI), running on     1 processors
     Waiting for input...
     Reading input from standard input

     Current dimensions of program PWSCF are:
     Max number of different atomic species (ntypx) = 10
     Max number of k-points (npk) =  40000
     Max angular momentum in pseudopotentials (lmaxx) =  3

     Atomic positions and unit cell read from directory:
     ./out/Si.save/

               file Si.pbe-mt_fhi.UPF: wavefunction(s)  4f renormalized
               file B.pbe-mt_fhi.UPF: wavefunction(s)  4f renormalized

     Subspace diagonalization in iterative solution of the eigenvalue problem:
     a serial algorithm will be used


     G-vector sticks info
     --------------------
     sticks:   dense  smooth     PW     G-vecs:    dense   smooth      PW
     Sum         733     733    223                12939    12939    2229



     bravais-lattice index     =            2
     lattice parameter (alat)  =      10.2623  a.u.
     unit-cell volume          =     270.1967 (a.u.)^3
     number of atoms/cell      =            2
     number of atomic types    =            2
     number of electrons       =         7.00
     number of Kohn-Sham states=           10
     kinetic-energy cutoff     =      50.0000  Ry
     charge density cutoff     =     200.0000  Ry
     Exchange-correlation      = PBE ( 1  4  3  4 0)

     celldm(1)=  10.262347  celldm(2)=   0.000000  celldm(3)=   0.000000
     celldm(4)=   0.000000  celldm(5)=   0.000000  celldm(6)=   0.000000

     crystal axes: (cart. coord. in units of alat)
               a(1) = (  -0.500000   0.000000   0.500000 )  
               a(2) = (   0.000000   0.500000   0.500000 )  
               a(3) = (  -0.500000   0.500000   0.000000 )  

     reciprocal axes: (cart. coord. in units 2 pi/alat)
               b(1) = ( -1.000000 -1.000000  1.000000 )  
               b(2) = (  1.000000  1.000000  1.000000 )  
               b(3) = ( -1.000000  1.000000 -1.000000 )  


     PseudoPot. # 1 for Si read from file:
     /home/acedemo/psudo/Si.pbe-mt_fhi.UPF
     MD5 check sum: 259057c2adf9952f9ced37ae3d9e311d
     Pseudo is Norm-conserving, Zval =  4.0
     Generated using FHI98PP, converted with fhi2upf.x v.5.0.2
     Using radial grid of  495 points,  3 beta functions with: 
                l(1) =   0
                l(2) =   1
                l(3) =   3

     PseudoPot. # 2 for  B read from file:
     /home/acedemo/psudo/B.pbe-mt_fhi.UPF
     MD5 check sum: 3ba04917d1d3a8de85490f79a9c37fe5
     Pseudo is Norm-conserving + core correction, Zval =  3.0
     Generated using FHI98PP, converted with fhi2upf.x v.5.0.2
     Using radial grid of  453 points,  3 beta functions with: 
                l(1) =   0
                l(2) =   1
                l(3) =   3

     atomic species   valence    mass     pseudopotential
        Si             4.00    28.08550     Si( 1.00)
        B              3.00    10.81100      B( 1.00)

     24 Sym. Ops. (no inversion) found



   Cartesian axes

     site n.     atom                  positions (alat units)
         1           Si  tau(   1) = (   0.0000000   0.0000000   0.0000000  )
         2           B   tau(   2) = (   0.2500000   0.2500000   0.2500000  )

     number of k points=    72 (tetrahedron method)
                       cart. coord. in units 2pi/alat
        k(    1) = (   0.0000000   0.0000000   0.0000000), wk =   0.0011574
        k(    2) = (  -0.0833333   0.0833333  -0.0833333), wk =   0.0092593
        k(    3) = (  -0.1666667   0.1666667  -0.1666667), wk =   0.0092593
        k(    4) = (  -0.2500000   0.2500000  -0.2500000), wk =   0.0092593
        k(    5) = (  -0.3333333   0.3333333  -0.3333333), wk =   0.0092593
        k(    6) = (  -0.4166667   0.4166667  -0.4166667), wk =   0.0092593
        k(    7) = (   0.5000000  -0.5000000   0.5000000), wk =   0.0046296
        k(    8) = (   0.0000000   0.1666667   0.0000000), wk =   0.0069444
        k(    9) = (  -0.0833333   0.2500000  -0.0833333), wk =   0.0277778
        k(   10) = (  -0.1666667   0.3333333  -0.1666667), wk =   0.0277778
        k(   11) = (  -0.2500000   0.4166667  -0.2500000), wk =   0.0277778
        k(   12) = (  -0.3333333   0.5000000  -0.3333333), wk =   0.0277778
        k(   13) = (   0.5833333  -0.4166667   0.5833333), wk =   0.0277778
        k(   14) = (   0.5000000  -0.3333333   0.5000000), wk =   0.0277778
        k(   15) = (   0.4166667  -0.2500000   0.4166667), wk =   0.0277778
        k(   16) = (   0.3333333  -0.1666667   0.3333333), wk =   0.0277778
        k(   17) = (   0.2500000  -0.0833333   0.2500000), wk =   0.0277778
        k(   18) = (   0.1666667  -0.0000000   0.1666667), wk =   0.0138889
        k(   19) = (   0.0000000   0.3333333   0.0000000), wk =   0.0069444
        k(   20) = (  -0.0833333   0.4166667  -0.0833333), wk =   0.0277778
        k(   21) = (  -0.1666667   0.5000000  -0.1666667), wk =   0.0277778
        k(   22) = (  -0.2500000   0.5833333  -0.2500000), wk =   0.0277778
        k(   23) = (   0.6666667  -0.3333333   0.6666667), wk =   0.0277778
        k(   24) = (   0.5833333  -0.2500000   0.5833333), wk =   0.0277778
        k(   25) = (   0.5000000  -0.1666667   0.5000000), wk =   0.0277778
        k(   26) = (   0.4166667  -0.0833333   0.4166667), wk =   0.0277778
        k(   27) = (   0.3333333   0.0000000   0.3333333), wk =   0.0138889
        k(   28) = (   0.0000000   0.5000000   0.0000000), wk =   0.0069444
        k(   29) = (  -0.0833333   0.5833333  -0.0833333), wk =   0.0277778
        k(   30) = (  -0.1666667   0.6666667  -0.1666667), wk =   0.0277778
        k(   31) = (   0.7500000  -0.2500000   0.7500000), wk =   0.0277778
        k(   32) = (   0.6666667  -0.1666667   0.6666667), wk =   0.0277778
        k(   33) = (   0.5833333  -0.0833333   0.5833333), wk =   0.0277778
        k(   34) = (   0.5000000   0.0000000   0.5000000), wk =   0.0138889
        k(   35) = (   0.0000000   0.6666667   0.0000000), wk =   0.0069444
        k(   36) = (  -0.0833333   0.7500000  -0.0833333), wk =   0.0277778
        k(   37) = (   0.8333333  -0.1666667   0.8333333), wk =   0.0277778
        k(   38) = (   0.7500000  -0.0833333   0.7500000), wk =   0.0277778
        k(   39) = (   0.6666667   0.0000000   0.6666667), wk =   0.0138889
        k(   40) = (   0.0000000   0.8333333   0.0000000), wk =   0.0069444
        k(   41) = (   0.9166667  -0.0833333   0.9166667), wk =   0.0277778
        k(   42) = (   0.8333333   0.0000000   0.8333333), wk =   0.0138889
        k(   43) = (   0.0000000  -1.0000000   0.0000000), wk =   0.0034722
        k(   44) = (  -0.1666667   0.3333333   0.0000000), wk =   0.0277778
        k(   45) = (  -0.2500000   0.4166667  -0.0833333), wk =   0.0555556
        k(   46) = (  -0.3333333   0.5000000  -0.1666667), wk =   0.0555556
        k(   47) = (   0.5833333  -0.4166667   0.7500000), wk =   0.0555556
        k(   48) = (   0.5000000  -0.3333333   0.6666667), wk =   0.0277778
        k(   49) = (  -0.1666667   0.5000000   0.0000000), wk =   0.0277778
        k(   50) = (  -0.2500000   0.5833333  -0.0833333), wk =   0.0555556
        k(   51) = (   0.6666667  -0.3333333   0.8333333), wk =   0.0555556
        k(   52) = (   0.5833333  -0.2500000   0.7500000), wk =   0.0555556
        k(   53) = (   0.5000000  -0.1666667   0.6666667), wk =   0.0555556
        k(   54) = (   0.4166667  -0.0833333   0.5833333), wk =   0.0555556
        k(   55) = (   0.3333333   0.0000000   0.5000000), wk =   0.0277778
        k(   56) = (  -0.1666667   0.6666667  -0.0000000), wk =   0.0277778
        k(   57) = (   0.7500000  -0.2500000   0.9166667), wk =   0.0555556
        k(   58) = (   0.6666667  -0.1666667   0.8333333), wk =   0.0555556
        k(   59) = (   0.5833333  -0.0833333   0.7500000), wk =   0.0555556
        k(   60) = (   0.5000000   0.0000000   0.6666667), wk =   0.0277778
        k(   61) = (   0.8333333  -0.1666667   1.0000000), wk =   0.0277778
        k(   62) = (   0.7500000  -0.0833333   0.9166667), wk =   0.0555556
        k(   63) = (   0.6666667   0.0000000   0.8333333), wk =   0.0277778
        k(   64) = (  -0.1666667  -1.0000000   0.0000000), wk =   0.0138889
        k(   65) = (   0.6666667  -0.3333333   1.0000000), wk =   0.0277778
        k(   66) = (   0.5833333  -0.2500000   0.9166667), wk =   0.0555556
        k(   67) = (   0.5000000  -0.1666667   0.8333333), wk =   0.0277778
        k(   68) = (   0.6666667  -0.1666667   1.0000000), wk =   0.0277778
        k(   69) = (   0.5833333  -0.0833333   0.9166667), wk =   0.0555556
        k(   70) = (   0.5000000   0.0000000   0.8333333), wk =   0.0277778
        k(   71) = (  -0.3333333  -1.0000000   0.0000000), wk =   0.0138889
        k(   72) = (  -0.5000000  -1.0000000   0.0000000), wk =   0.0069444

     Dense  grid:    12939 G-vectors     FFT dimensions: (  36,  36,  36)

     Largest allocated arrays     est. size (Mb)     dimensions
        Kohn-Sham Wavefunctions         0.25 Mb     (    1639,   10)
        NL pseudopotentials             0.55 Mb     (    1639,   22)
        Each V/rho on FFT grid          0.71 Mb     (   46656)
        Each G-vector array             0.10 Mb     (   12939)
        G-vector shells                 0.00 Mb     (     180)
     Largest temporary arrays     est. size (Mb)     dimensions
        Auxiliary wavefunctions         1.00 Mb     (    1639,   40)
        Each subspace H/S matrix        0.02 Mb     (      40,   40)
        Each <psi_i|beta_j> matrix      0.00 Mb     (      22,   10)

     Check: negative/imaginary core charge=   -0.000048    0.000000

     The potential is recalculated from file :
     ./out/Si.save/charge-density.dat

     Starting wfc are   32 randomized atomic wfcs

     Band Structure Calculation
     Davidson diagonalization with overlap

     ethr =  2.29E-11,  avg # of iterations = 22.8

     total cpu time spent up to now is       50.4 secs

     End of band structure calculation

          k = 0.0000 0.0000 0.0000 (  1639 PWs)   bands (ev):

    -6.8602   4.1959   4.1959   4.1959   6.2974   7.1667   7.1667   7.1667
    12.3729  14.0839

          k =-0.0833 0.0833-0.0833 (  1612 PWs)   bands (ev):

    -6.7744   3.4328   4.0821   4.0821   6.5076   7.3303   7.3303   7.5363
    12.7038  13.7001

          k =-0.1667 0.1667-0.1667 (  1591 PWs)   bands (ev):

    -6.5199   2.0761   3.8227   3.8227   6.3700   7.6954   7.6954   8.5817
    13.2254  13.2254

          k =-0.2500 0.2500-0.2500 (  1618 PWs)   bands (ev):

    -6.1076   0.6768   3.5434   3.5434   6.1135   8.0252   8.0252   9.6948
    13.1725  13.1725

          k =-0.3333 0.3333-0.3333 (  1616 PWs)   bands (ev):

    -5.5671  -0.6116   3.3163   3.3163   5.8918   8.1776   8.1776  10.6376
    13.6743  13.6743

          k =-0.4167 0.4167-0.4167 (  1616 PWs)   bands (ev):

    -4.9905  -1.6504   3.1725   3.1725   5.7492   8.1955   8.1955  11.1997
    14.0483  14.5904

          k = 0.5000-0.5000 0.5000 (  1622 PWs)   bands (ev):

    -4.6842  -2.1127   3.1235   3.1235   5.7005   8.1865   8.1865  11.3540
    14.4299  15.2739

          k = 0.0000 0.1667 0.0000 (  1615 PWs)   bands (ev):

    -6.7457   3.5177   3.8620   3.8620   6.6879   7.1222   7.6134   7.6134
    12.8092  13.0755

          k =-0.0833 0.2500-0.0833 (  1599 PWs)   bands (ev):

    -6.5470   2.4540   3.5520   3.6874   6.6987   7.2468   8.0593   8.3887
    12.4653  13.4547

          k =-0.1667 0.3333-0.1667 (  1610 PWs)   bands (ev):

    -6.1859   1.1151   3.2665   3.4030   6.5838   7.5326   8.4455   9.2874
    12.3421  13.9158

          k =-0.2500 0.4167-0.2500 (  1606 PWs)   bands (ev):

    -5.6833  -0.1894   3.0637   3.0861   6.3875   7.8462   8.6143  10.0688
    12.7831  14.1849

          k =-0.3333 0.5000-0.3333 (  1616 PWs)   bands (ev):

    -5.1005  -1.3166   2.8182   2.9668   6.2303   7.9988   8.5824  10.8023
    13.4224  14.4708

          k = 0.5833-0.4167 0.5833 (  1615 PWs)   bands (ev):

    -4.6492  -2.0205   2.6360   2.9811   6.1527   8.0845   8.4703  11.2721
    14.0044  14.9621

          k = 0.5000-0.3333 0.5000 (  1616 PWs)   bands (ev):

    -4.7596  -1.8585   2.5584   3.1011   6.1662   8.1929   8.3563  11.2362
    14.1184  14.3076

          k = 0.4167-0.2500 0.4167 (  1611 PWs)   bands (ev):

    -5.2973  -0.9676   2.5967   3.3127   6.2692   8.2303   8.3064  10.6945
    13.2608  13.8402

          k = 0.3333-0.1667 0.3333 (  1605 PWs)   bands (ev):

    -5.8652   0.2341   2.7582   3.5891   6.4472   8.0137   8.2837   9.8879
    12.6279  13.6289

          k = 0.2500-0.0833 0.2500 (  1600 PWs)   bands (ev):

    -6.3241   1.5504   3.0498   3.8791   6.6529   7.6764   7.9413   9.0751
    12.5569  13.4569

          k = 0.1667-0.0000 0.1667 (  1592 PWs)   bands (ev):

    -6.6322   2.7545   3.5159   4.0846   6.7069   7.3712   7.4932   8.2401
    12.9846  13.1787

          k = 0.0000 0.3333 0.0000 (  1607 PWs)   bands (ev):

    -6.4043   2.2877   3.2089   3.2089   6.3380   7.7054   8.5962   8.5962
    11.8368  13.9204

          k =-0.0833 0.4167-0.0833 (  1616 PWs)   bands (ev):

    -6.0969   1.3376   2.8892   2.9048   6.3369   7.7240   9.0926   9.1489
    11.7978  14.6066

          k =-0.1667 0.5000-0.1667 (  1611 PWs)   bands (ev):

    -5.6394   0.1719   2.4849   2.6965   6.5191   7.8734   9.3635   9.3840
    12.4362  14.9386

          k =-0.2500 0.5833-0.2500 (  1610 PWs)   bands (ev):

    -5.0730  -0.9444   2.0887   2.6078   6.5459   8.1878   9.3681   9.7715
    13.1369  15.1297

          k = 0.6667-0.3333 0.6667 (  1607 PWs)   bands (ev):

    -4.5357  -1.7922   1.7781   2.6447   6.5439   8.3279   9.2151  10.5630
    13.2782  15.3603

          k = 0.5833-0.2500 0.5833 (  1602 PWs)   bands (ev):

    -4.4319  -1.9358   1.5899   2.8010   6.6088   8.4163   9.0066  11.0789
    13.2180  14.2010

          k = 0.5000-0.1667 0.5000 (  1610 PWs)   bands (ev):

    -4.8892  -1.2477   1.5513   3.0579   6.7454   8.5459   8.7573  10.5824
    13.0801  13.6875

          k = 0.4167-0.0833 0.4167 (  1613 PWs)   bands (ev):

    -5.4693  -0.2095   1.7046   3.3784   6.9095   8.4141   8.6071   9.7668
    12.3799  14.0243

          k = 0.3333 0.0000 0.3333 (  1604 PWs)   bands (ev):

    -5.9671   0.8190   2.1676   3.6920   6.9682   7.9894   8.2506   9.3820
    12.2272  13.7809

          k = 0.0000 0.5000 0.0000 (  1612 PWs)   bands (ev):

    -5.8431   0.9545   2.5773   2.5773   5.8579   7.6041   9.7493   9.7493
    11.6896  15.2150

          k =-0.0833 0.5833-0.0833 (  1617 PWs)   bands (ev):

    -5.4348   0.1398   2.1732   2.3465   5.9262   7.4282  10.0215  10.2033
    12.2963  15.5579

          k =-0.1667 0.6667-0.1667 (  1620 PWs)   bands (ev):

    -4.8995  -0.7829   1.6212   2.2403   6.1634   7.7776   9.9430  10.3363
    13.0965  15.7720

          k = 0.7500-0.2500 0.7500 (  1617 PWs)   bands (ev):

    -4.3257  -1.6136   1.1292   2.2678   6.2738   8.6232   9.9422  10.2107
    13.1635  15.5536

          k = 0.6667-0.1667 0.6667 (  1607 PWs)   bands (ev):

    -4.0345  -1.9804   0.8010   2.4249   6.4163   9.2049   9.9385  10.4319
    12.4748  14.3235

          k = 0.5833-0.0833 0.5833 (  1611 PWs)   bands (ev):

    -4.3738  -1.5396   0.7015   2.6940   6.6435   9.3710   9.5472  10.4546
    12.5446  13.2077

          k = 0.5000 0.0000 0.5000 (  1604 PWs)   bands (ev):

    -4.9462  -0.7969   0.9531   3.0370   6.8875   9.0087   9.3784   9.6292
    12.5393  13.5748

          k = 0.0000 0.6667 0.0000 (  1624 PWs)   bands (ev):

    -5.0754  -0.3937   2.0866   2.0866   5.5244   6.8711  10.9017  10.9017
    12.4537  16.0419

          k =-0.0833 0.7500-0.0833 (  1618 PWs)   bands (ev):

    -4.5801  -1.1049   1.6766   1.9507   5.6751   6.7444  11.0965  11.2561
    13.1051  16.2732

          k = 0.8333-0.1667 0.8333 (  1619 PWs)   bands (ev):

    -4.0057  -1.7964   1.0521   1.9516   5.8983   7.3863  10.9920  11.2293
    13.2671  15.9545

          k = 0.7500-0.0833 0.7500 (  1620 PWs)   bands (ev):

    -3.5943  -2.2225   0.5388   2.0887   6.0696   8.5533  10.8822  10.9079
    12.4495  14.7585

          k = 0.6667 0.0000 0.6667 (  1612 PWs)   bands (ev):

    -3.8335  -1.9702   0.3568   2.3475   6.3314   9.6311  10.3310  10.6680
    11.7457  13.7548

          k = 0.0000 0.8333 0.0000 (  1628 PWs)   bands (ev):

    -4.1266  -1.7042   1.7804   1.7804   5.4016   6.1858  11.8693  11.8693
    13.3369  16.5392

          k = 0.9167-0.0833 0.9167 (  1622 PWs)   bands (ev):

    -3.5825  -2.3110   1.4268   1.7470   5.6028   6.2758  11.9593  12.0025
    13.5282  16.2880

          k = 0.8333 0.0000 0.8333 (  1614 PWs)   bands (ev):

    -3.2408  -2.6057   0.8601   1.8532   5.8037   7.2306  11.6561  11.6699
    12.9603  15.5880

          k = 0.0000-1.0000 0.0000 (  1604 PWs)   bands (ev):

    -3.2284  -2.7256   1.6767   1.6767   5.4280   5.8731  12.2890  12.2890
    13.7588  16.4464

          k =-0.1667 0.3333 0.0000 (  1603 PWs)   bands (ev):

    -6.2942   1.7110   2.8486   3.5880   6.7857   7.4065   8.4560   8.9613
    12.0850  14.0108

          k =-0.2500 0.4167-0.0833 (  1607 PWs)   bands (ev):

    -5.8845   0.6020   2.3596   3.3483   6.8896   7.6300   8.8643   9.3700
    12.2383  14.1503

          k =-0.3333 0.5000-0.1667 (  1604 PWs)   bands (ev):

    -5.3467  -0.5731   2.0948   3.0623   6.7995   7.9247   8.9873   9.9460
    12.7952  14.3197

          k = 0.5833-0.4167 0.7500 (  1612 PWs)   bands (ev):

    -4.7708  -1.5658   1.9651   2.8453   6.7005   8.0101   8.9936  10.7165
    13.2942  14.5508

          k = 0.5000-0.3333 0.6667 (  1602 PWs)   bands (ev):

    -4.4619  -2.0178   1.9277   2.7645   6.6633   8.0099   8.9870  11.1558
    13.3259  14.9225

          k =-0.1667 0.5000 0.0000 (  1617 PWs)   bands (ev):

    -5.7396   0.6084   2.2169   2.8013   6.3917   7.7280   9.3011   9.6709
    12.0917  14.9294

          k =-0.2500 0.5833-0.0833 (  1611 PWs)   bands (ev):

    -5.2422  -0.3347   1.7295   2.5524   6.6813   7.9263   9.2006  10.0835
    12.7204  15.0423

          k = 0.6667-0.3333 0.8333 (  1617 PWs)   bands (ev):

    -4.6628  -1.2826   1.3961   2.3670   6.7966   8.3334   9.3515  10.2600
    13.0877  14.9599

          k = 0.5833-0.2500 0.7500 (  1607 PWs)   bands (ev):

    -4.2102  -1.9162   1.1701   2.3485   6.8770   8.3700   9.7704  10.6106
    12.6014  14.9515

          k = 0.5000-0.1667 0.6667 (  1605 PWs)   bands (ev):

    -4.3329  -1.7481   1.0691   2.4986   7.0139   8.3150   9.6988  10.7169
    12.5236  14.1816

          k = 0.4167-0.0833 0.5833 (  1610 PWs)   bands (ev):

    -4.8743  -0.9596   1.1529   2.7746   7.1798   8.2098   9.3688  10.0775
    12.7580  13.9639

          k = 0.3333 0.0000 0.5000 (  1606 PWs)   bands (ev):

    -5.4344  -0.0754   1.5445   3.1020   7.2329   7.8442   9.2213   9.4777
    12.3851  14.3569

          k =-0.1667 0.6667-0.0000 (  1626 PWs)   bands (ev):

    -4.9838  -0.5510   1.7440   2.1134   6.0715   7.2387  10.0920  10.8726
    12.8134  15.7204

          k = 0.7500-0.2500 0.9167 (  1621 PWs)   bands (ev):

    -4.4244  -1.3057   1.2312   1.9249   6.4086   7.6296   9.9039  11.1742
    13.1647  15.3887

          k = 0.6667-0.1667 0.8333 (  1616 PWs)   bands (ev):

    -3.8912  -1.9416   0.7672   1.9298   6.5760   8.6059   9.7455  11.0881
    12.6249  15.1846

          k = 0.5833-0.0833 0.7500 (  1614 PWs)   bands (ev):

    -3.8294  -2.0010   0.5089   2.1059   6.7787   9.2160   9.8580  10.8524
    11.9036  14.3101

          k = 0.5000 0.0000 0.6667 (  1621 PWs)   bands (ev):

    -4.3133  -1.4740   0.5911   2.4106   7.0406   8.9630   9.5061  10.6662
    12.2927  13.6151

          k = 0.8333-0.1667 1.0000 (  1617 PWs)   bands (ev):

    -4.0565  -1.7386   1.4770   1.6512   5.9339   6.6444  11.0954  11.8191
    13.3585  15.9109

          k = 0.7500-0.0833 0.9167 (  1620 PWs)   bands (ev):

    -3.5032  -2.3009   0.9445   1.6133   6.2615   7.3272  10.8727  11.7014
    13.0500  15.6527

          k = 0.6667 0.0000 0.8333 (  1620 PWs)   bands (ev):

    -3.3795  -2.3862   0.5064   1.7914   6.4826   8.5611  10.4352  11.0826
    12.4202  14.9065

          k =-0.1667-1.0000 0.0000 (  1622 PWs)   bands (ev):

    -3.1964  -2.6904   1.4343   1.4478   5.9360   6.3771  11.7474  12.0618
    13.4386  16.0767

          k = 0.6667-0.3333 1.0000 (  1610 PWs)   bands (ev):

    -4.7186  -0.9597   1.1115   2.2369   7.2551   8.0027   8.9518  10.7885
    12.8685  14.5962

          k = 0.5833-0.2500 0.9167 (  1611 PWs)   bands (ev):

    -4.1471  -1.6523   0.7929   1.9460   7.5250   8.2855   9.1755  11.0727
    12.4344  14.5905

          k = 0.5000-0.1667 0.8333 (  1610 PWs)   bands (ev):

    -3.8252  -2.0304   0.7043   1.8325   7.5638   8.2809   9.8078  10.8646
    12.0090  14.9980

          k = 0.6667-0.1667 1.0000 (  1618 PWs)   bands (ev):

    -3.8647  -1.8680   0.9291   1.4908   7.1547   7.7532   9.6374  11.5206
    12.8452  15.1529

          k = 0.5833-0.0833 0.9167 (  1615 PWs)   bands (ev):

    -3.4131  -2.3020   0.6548   1.3545   7.5100   8.6078   9.4344  10.7251
    12.6917  15.3327

          k = 0.5000 0.0000 0.8333 (  1612 PWs)   bands (ev):

    -3.6092  -2.1071   0.5424   1.5551   7.7083   8.8375   9.2139  10.6527
    12.4104  14.8582

          k =-0.3333-1.0000 0.0000 (  1618 PWs)   bands (ev):

    -3.1287  -2.6148   1.0296   1.0591   7.1395   7.5723  10.4210  11.0663
    13.0749  15.7629

          k =-0.5000-1.0000 0.0000 (  1628 PWs)   bands (ev):

    -3.0928  -2.5741   0.8514   0.8870   8.3419   8.6234   9.1476  10.0000
    13.0001  15.6791

     the Fermi energy is     2.7649 ev

     Writing output data file Si.save

     init_run     :      0.39s CPU      0.41s WALL (       1 calls)
     electrons    :     49.07s CPU     49.59s WALL (       1 calls)

     Called by init_run:
     wfcinit      :      0.00s CPU      0.00s WALL (       1 calls)
     potinit      :      0.07s CPU      0.07s WALL (       1 calls)

     Called by electrons:
     c_bands      :     48.91s CPU     49.43s WALL (       1 calls)
     v_of_rho     :      0.06s CPU      0.06s WALL (       1 calls)

     Called by c_bands:
     init_us_2    :      0.14s CPU      0.15s WALL (      72 calls)
     cegterg      :     38.80s CPU     39.18s WALL (     119 calls)

     Called by *egterg:
     h_psi        :     41.26s CPU     41.70s WALL (    1829 calls)
     g_psi        :      0.10s CPU      0.10s WALL (    1638 calls)
     cdiaghg      :      0.88s CPU      0.90s WALL (    1710 calls)

     Called by h_psi:
     add_vuspsi   :      1.16s CPU      1.17s WALL (    1829 calls)

     General routines
     calbec       :      1.30s CPU      1.33s WALL (    1829 calls)
     fft          :      0.03s CPU      0.03s WALL (      11 calls)
     fftw         :     36.70s CPU     37.08s WALL (   23418 calls)
     davcio       :      0.00s CPU      0.01s WALL (      72 calls)

     Parallel routines
     fft_scatter  :      0.92s CPU      0.91s WALL (   23429 calls)

     PWSCF        :    51.92s CPU        52.52s WALL


   This run was terminated on:  22:26:56  12Feb2023            

=------------------------------------------------------------------------------=
   JOB DONE.
=------------------------------------------------------------------------------=
