
     Program PWSCF v.5.1 starts on 12Feb2023 at 22:23:56 

     This program is part of the open-source Quantum ESPRESSO suite
     for quantum simulation of materials; please cite
         "P. Giannozzi et al., J. Phys.:Condens. Matter 21 395502 (2009);
          URL http://www.quantum-espresso.org", 
     in publications or presentations arising from this work. More details at
     http://www.quantum-espresso.org/quote

     Parallel version (MPI), running on     1 processors
     Waiting for input...
     Reading input from standard input

     Current dimensions of program PWSCF are:
     Max number of different atomic species (ntypx) = 10
     Max number of k-points (npk) =  40000
     Max angular momentum in pseudopotentials (lmaxx) =  3
               file Si.pbe-mt_fhi.UPF: wavefunction(s)  4f renormalized
               file B.pbe-mt_fhi.UPF: wavefunction(s)  4f renormalized

     Subspace diagonalization in iterative solution of the eigenvalue problem:
     a serial algorithm will be used


     G-vector sticks info
     --------------------
     sticks:   dense  smooth     PW     G-vecs:    dense   smooth      PW
     Sum         733     733    211                12939    12939    2109



     bravais-lattice index     =            2
     lattice parameter (alat)  =      10.2623  a.u.
     unit-cell volume          =     270.1967 (a.u.)^3
     number of atoms/cell      =            2
     number of atomic types    =            2
     number of electrons       =         7.00
     number of Kohn-Sham states=           10
     kinetic-energy cutoff     =      50.0000  Ry
     charge density cutoff     =     200.0000  Ry
     convergence threshold     =      1.6E-09
     mixing beta               =       0.3000
     number of iterations used =            8  plain     mixing
     Exchange-correlation      = PBE ( 1  4  3  4 0)

     celldm(1)=  10.262347  celldm(2)=   0.000000  celldm(3)=   0.000000
     celldm(4)=   0.000000  celldm(5)=   0.000000  celldm(6)=   0.000000

     crystal axes: (cart. coord. in units of alat)
               a(1) = (  -0.500000   0.000000   0.500000 )  
               a(2) = (   0.000000   0.500000   0.500000 )  
               a(3) = (  -0.500000   0.500000   0.000000 )  

     reciprocal axes: (cart. coord. in units 2 pi/alat)
               b(1) = ( -1.000000 -1.000000  1.000000 )  
               b(2) = (  1.000000  1.000000  1.000000 )  
               b(3) = ( -1.000000  1.000000 -1.000000 )  


     PseudoPot. # 1 for Si read from file:
     /home/acedemo/psudo/Si.pbe-mt_fhi.UPF
     MD5 check sum: 259057c2adf9952f9ced37ae3d9e311d
     Pseudo is Norm-conserving, Zval =  4.0
     Generated using FHI98PP, converted with fhi2upf.x v.5.0.2
     Using radial grid of  495 points,  3 beta functions with: 
                l(1) =   0
                l(2) =   1
                l(3) =   3

     PseudoPot. # 2 for  B read from file:
     /home/acedemo/psudo/B.pbe-mt_fhi.UPF
     MD5 check sum: 3ba04917d1d3a8de85490f79a9c37fe5
     Pseudo is Norm-conserving + core correction, Zval =  3.0
     Generated using FHI98PP, converted with fhi2upf.x v.5.0.2
     Using radial grid of  453 points,  3 beta functions with: 
                l(1) =   0
                l(2) =   1
                l(3) =   3

     atomic species   valence    mass     pseudopotential
        Si             4.00    28.08550     Si( 1.00)
        B              3.00    10.81100      B( 1.00)

     24 Sym. Ops. (no inversion) found



   Cartesian axes

     site n.     atom                  positions (alat units)
         1           Si  tau(   1) = (   0.0000000   0.0000000   0.0000000  )
         2           B   tau(   2) = (   0.2500000   0.2500000   0.2500000  )

     number of k points=    10  Marzari-Vanderbilt smearing, width (Ry)=  0.0500
                       cart. coord. in units 2pi/alat
        k(    1) = (   0.0000000   0.0000000   0.0000000), wk =   0.0160000
        k(    2) = (  -0.2000000   0.2000000  -0.2000000), wk =   0.1280000
        k(    3) = (  -0.4000000   0.4000000  -0.4000000), wk =   0.1280000
        k(    4) = (   0.0000000   0.4000000   0.0000000), wk =   0.0960000
        k(    5) = (  -0.2000000   0.6000000  -0.2000000), wk =   0.3840000
        k(    6) = (   0.6000000  -0.2000000   0.6000000), wk =   0.3840000
        k(    7) = (   0.4000000   0.0000000   0.4000000), wk =   0.1920000
        k(    8) = (   0.0000000   0.8000000   0.0000000), wk =   0.0960000
        k(    9) = (   0.8000000   0.0000000   0.8000000), wk =   0.1920000
        k(   10) = (   0.6000000  -0.2000000   1.0000000), wk =   0.3840000

     Dense  grid:    12939 G-vectors     FFT dimensions: (  36,  36,  36)

     Largest allocated arrays     est. size (Mb)     dimensions
        Kohn-Sham Wavefunctions         0.25 Mb     (    1639,   10)
        NL pseudopotentials             0.55 Mb     (    1639,   22)
        Each V/rho on FFT grid          0.71 Mb     (   46656)
        Each G-vector array             0.10 Mb     (   12939)
        G-vector shells                 0.00 Mb     (     180)
     Largest temporary arrays     est. size (Mb)     dimensions
        Auxiliary wavefunctions         1.00 Mb     (    1639,   40)
        Each subspace H/S matrix        0.02 Mb     (      40,   40)
        Each <psi_i|beta_j> matrix      0.00 Mb     (      22,   10)
        Arrays for rho mixing           5.70 Mb     (   46656,    8)

     Check: negative/imaginary core charge=   -0.000048    0.000000

     Initial potential from superposition of free atoms

     starting charge    6.99902, renormalised to    7.00000
     Starting wfc are   32 randomized atomic wfcs

     total cpu time spent up to now is        1.8 secs

     per-process dynamical memory:    16.9 Mb

     Self-consistent Calculation

     iteration #  1     ecut=    50.00 Ry     beta=0.30
     Davidson diagonalization with overlap
     ethr =  1.00E-02,  avg # of iterations =  2.3

     Threshold (ethr) on eigenvalues was too large:
     Diagonalizing with lowered threshold

     Davidson diagonalization with overlap
     ethr =  8.47E-04,  avg # of iterations =  1.0

     total cpu time spent up to now is        4.3 secs

     total energy              =     -14.47832159 Ry
     Harris-Foulkes estimate   =     -14.49533124 Ry
     estimated scf accuracy    <       0.05971876 Ry

     iteration #  2     ecut=    50.00 Ry     beta=0.30
     Davidson diagonalization with overlap
     ethr =  8.53E-04,  avg # of iterations =  1.0

     total cpu time spent up to now is        5.2 secs

     total energy              =     -14.48134794 Ry
     Harris-Foulkes estimate   =     -14.48280038 Ry
     estimated scf accuracy    <       0.01019940 Ry

     iteration #  3     ecut=    50.00 Ry     beta=0.30
     Davidson diagonalization with overlap
     ethr =  1.46E-04,  avg # of iterations =  1.3

     total cpu time spent up to now is        6.2 secs

     total energy              =     -14.48226379 Ry
     Harris-Foulkes estimate   =     -14.48217010 Ry
     estimated scf accuracy    <       0.00214377 Ry

     iteration #  4     ecut=    50.00 Ry     beta=0.30
     Davidson diagonalization with overlap
     ethr =  3.06E-05,  avg # of iterations =  1.1

     total cpu time spent up to now is        7.3 secs

     total energy              =     -14.48231923 Ry
     Harris-Foulkes estimate   =     -14.48232228 Ry
     estimated scf accuracy    <       0.00001216 Ry

     iteration #  5     ecut=    50.00 Ry     beta=0.30
     Davidson diagonalization with overlap
     ethr =  1.74E-07,  avg # of iterations =  3.0

     total cpu time spent up to now is        8.7 secs

     total energy              =     -14.48232411 Ry
     Harris-Foulkes estimate   =     -14.48232321 Ry
     estimated scf accuracy    <       0.00000214 Ry

     iteration #  6     ecut=    50.00 Ry     beta=0.30
     Davidson diagonalization with overlap
     ethr =  3.05E-08,  avg # of iterations =  1.4

     total cpu time spent up to now is        9.8 secs

     total energy              =     -14.48232437 Ry
     Harris-Foulkes estimate   =     -14.48232437 Ry
     estimated scf accuracy    <       0.00000007 Ry

     iteration #  7     ecut=    50.00 Ry     beta=0.30
     Davidson diagonalization with overlap
     ethr =  9.29E-10,  avg # of iterations =  2.5

     total cpu time spent up to now is       11.3 secs

     total energy              =     -14.48232442 Ry
     Harris-Foulkes estimate   =     -14.48232439 Ry
     estimated scf accuracy    <       0.00000002 Ry

     iteration #  8     ecut=    50.00 Ry     beta=0.30
     Davidson diagonalization with overlap
     ethr =  3.24E-10,  avg # of iterations =  2.0

     total cpu time spent up to now is       12.7 secs

     total energy              =     -14.48232443 Ry
     Harris-Foulkes estimate   =     -14.48232443 Ry
     estimated scf accuracy    <          3.0E-09 Ry

     iteration #  9     ecut=    50.00 Ry     beta=0.30
     Davidson diagonalization with overlap
     ethr =  4.28E-11,  avg # of iterations =  1.9

     total cpu time spent up to now is       13.6 secs

     End of self-consistent calculation

          k = 0.0000 0.0000 0.0000 (  1639 PWs)   bands (ev):

    -6.8602   4.1959   4.1959   4.1959   6.2974   7.1667   7.1667   7.1667
    12.3729  14.0839

          k =-0.2000 0.2000-0.2000 (  1606 PWs)   bands (ev):

    -6.3729   1.5105   3.7081   3.7081   6.2686   7.8435   7.8435   9.0355
    13.1402  13.1402

          k =-0.4000 0.4000-0.4000 (  1616 PWs)   bands (ev):

    -5.0990  -1.4735   3.1939   3.1939   5.7705   8.1970   8.1970  11.1240
    13.9526  14.3910

          k = 0.0000 0.4000 0.0000 (  1607 PWs)   bands (ev):

    -6.2057   1.7598   2.9442   2.9442   6.1363   7.7873   9.0484   9.0484
    11.6191  14.8141

          k =-0.2000 0.6000-0.2000 (  1619 PWs)   bands (ev):

    -5.1384  -0.6285   1.9315   2.4641   6.4192   8.1437   9.5172   9.7568
    12.9985  15.5816

          k = 0.6000-0.2000 0.6000 (  1596 PWs)   bands (ev):

    -4.3258  -1.8836   1.2040   2.6972   6.6145   8.7365   9.3046  10.9134
    12.8241  13.9704

          k = 0.4000 0.0000 0.4000 (  1610 PWs)   bands (ev):

    -5.5931   0.1248   1.6370   3.4517   7.0073   8.3517   8.6630   9.4810
    12.2269  14.0543

          k = 0.0000 0.8000 0.0000 (  1624 PWs)   bands (ev):

    -4.3287  -1.4484   1.8258   1.8258   5.4089   6.3022  11.7048  11.7048
    13.1783  16.7762

          k = 0.8000 0.0000 0.8000 (  1622 PWs)   bands (ev):

    -3.2920  -2.5282   0.6696   1.9292   5.8920   7.7398  11.4176  11.4654
    12.6577  15.1876

          k = 0.6000-0.2000 1.0000 (  1616 PWs)   bands (ev):

    -3.9313  -1.7933   0.7438   1.6339   7.6796   8.2501   8.9983  11.2934
    12.5306  14.7987

     the Fermi energy is     2.8131 ev

!    total energy              =     -14.48232443 Ry
     Harris-Foulkes estimate   =     -14.48232443 Ry
     estimated scf accuracy    <          6.5E-10 Ry

     The total energy is the sum of the following terms:

     one-electron contribution =       2.71092602 Ry
     hartree contribution      =       1.11681794 Ry
     xc contribution           =      -5.27051437 Ry
     ewald contribution        =     -13.04458127 Ry
     smearing contrib. (-TS)   =       0.00502725 Ry

     convergence has been achieved in   9 iterations

     Forces acting on atoms (Ry/au):

     atom    1 type  1   force =     0.00000000    0.00000000    0.00000000
     atom    2 type  2   force =    -0.00000000   -0.00000000   -0.00000000

     Total force =     0.000000     Total SCF correction =     0.000000


     entering subroutine stress ...

          total   stress  (Ry/bohr**3)                   (kbar)     P= -228.40
  -0.00155263   0.00000000  -0.00000000       -228.40      0.00     -0.00
  -0.00000000  -0.00155263  -0.00000000         -0.00   -228.40     -0.00
   0.00000000  -0.00000000  -0.00155263          0.00     -0.00   -228.40


     Writing output data file Si.save

     init_run     :      1.60s CPU      1.75s WALL (       1 calls)
     electrons    :     11.03s CPU     11.75s WALL (       1 calls)
     forces       :      0.22s CPU      0.23s WALL (       1 calls)
     stress       :      0.99s CPU      1.08s WALL (       1 calls)

     Called by init_run:
     wfcinit      :      1.31s CPU      1.42s WALL (       1 calls)
     potinit      :      0.06s CPU      0.07s WALL (       1 calls)

     Called by electrons:
     c_bands      :      8.48s CPU      9.08s WALL (      10 calls)
     sum_band     :      1.98s CPU      2.06s WALL (      10 calls)
     v_of_rho     :      0.58s CPU      0.61s WALL (      10 calls)
     mix_rho      :      0.03s CPU      0.04s WALL (      10 calls)

     Called by c_bands:
     init_us_2    :      0.48s CPU      0.50s WALL (     230 calls)
     cegterg      :      8.15s CPU      8.73s WALL (     100 calls)

     Called by *egterg:
     h_psi        :      8.53s CPU      9.15s WALL (     285 calls)
     g_psi        :      0.02s CPU      0.02s WALL (     175 calls)
     cdiaghg      :      0.08s CPU      0.09s WALL (     265 calls)

     Called by h_psi:
     add_vuspsi   :      0.24s CPU      0.28s WALL (     285 calls)

     General routines
     calbec       :      0.29s CPU      0.31s WALL (     305 calls)
     fft          :      0.27s CPU      0.28s WALL (     136 calls)
     fftw         :      9.09s CPU      9.70s WALL (    6006 calls)
     davcio       :      0.00s CPU      0.00s WALL (      10 calls)

     Parallel routines
     fft_scatter  :      0.25s CPU      0.26s WALL (    6142 calls)

     PWSCF        :    14.03s CPU        15.01s WALL


   This run was terminated on:  22:24:11  12Feb2023            

=------------------------------------------------------------------------------=
   JOB DONE.
=------------------------------------------------------------------------------=
