
     Program PWSCF v.5.1 starts on 13Feb2023 at 20:53:14 

     This program is part of the open-source Quantum ESPRESSO suite
     for quantum simulation of materials; please cite
         "P. Giannozzi et al., J. Phys.:Condens. Matter 21 395502 (2009);
          URL http://www.quantum-espresso.org", 
     in publications or presentations arising from this work. More details at
     http://www.quantum-espresso.org/quote

     Parallel version (MPI), running on     1 processors
     Waiting for input...
     Reading input from standard input

     Current dimensions of program PWSCF are:
     Max number of different atomic species (ntypx) = 10
     Max number of k-points (npk) =  40000
     Max angular momentum in pseudopotentials (lmaxx) =  3

     Atomic positions and unit cell read from directory:
     ./out/Si.save/

               file Si.pbe-mt_fhi.UPF: wavefunction(s)  4f renormalized

     Subspace diagonalization in iterative solution of the eigenvalue problem:
     a serial algorithm will be used


     G-vector sticks info
     --------------------
     sticks:   dense  smooth     PW     G-vecs:    dense   smooth      PW
     Sum         733     733    211                12939    12939    2109



     bravais-lattice index     =            2
     lattice parameter (alat)  =      10.2623  a.u.
     unit-cell volume          =     270.1967 (a.u.)^3
     number of atoms/cell      =            2
     number of atomic types    =            1
     number of electrons       =         4.00
     number of Kohn-Sham states=           10
     kinetic-energy cutoff     =      50.0000  Ry
     charge density cutoff     =     200.0000  Ry
     Exchange-correlation      = PBE ( 1  4  3  4 0)

     celldm(1)=  10.262347  celldm(2)=   0.000000  celldm(3)=   0.000000
     celldm(4)=   0.000000  celldm(5)=   0.000000  celldm(6)=   0.000000

     crystal axes: (cart. coord. in units of alat)
               a(1) = (  -0.500000   0.000000   0.500000 )  
               a(2) = (   0.000000   0.500000   0.500000 )  
               a(3) = (  -0.500000   0.500000   0.000000 )  

     reciprocal axes: (cart. coord. in units 2 pi/alat)
               b(1) = ( -1.000000 -1.000000  1.000000 )  
               b(2) = (  1.000000  1.000000  1.000000 )  
               b(3) = ( -1.000000  1.000000 -1.000000 )  


     PseudoPot. # 1 for Si read from file:
     /home/acedemo/psudo/Si.pbe-mt_fhi.UPF
     MD5 check sum: 259057c2adf9952f9ced37ae3d9e311d
     Pseudo is Norm-conserving, Zval =  4.0
     Generated using FHI98PP, converted with fhi2upf.x v.5.0.2
     Using radial grid of  495 points,  3 beta functions with: 
                l(1) =   0
                l(2) =   1
                l(3) =   3

     atomic species   valence    mass     pseudopotential
        Si             4.00    28.08550     Si( 1.00)

     48 Sym. Ops., with inversion, found (24 have fractional translation)



   Cartesian axes

     site n.     atom                  positions (alat units)
         1           Si  tau(   1) = (   0.0000000   0.0000000   0.0000000  )
         2           Si  tau(   2) = (   0.2500000   0.2500000   0.2500000  )

     number of k points=    51  Marzari-Vanderbilt smearing, width (Ry)=  0.0500
                       cart. coord. in units 2pi/alat
        k(    1) = (   0.5000000   0.5000000   0.5000000), wk =   0.0000000
        k(    2) = (   0.4500000   0.4500000   0.4500000), wk =   0.0014779
        k(    3) = (   0.4000000   0.4000000   0.4000000), wk =   0.0029558
        k(    4) = (   0.3500000   0.3500000   0.3500000), wk =   0.0044337
        k(    5) = (   0.3000000   0.3000000   0.3000000), wk =   0.0059116
        k(    6) = (   0.2500000   0.2500000   0.2500000), wk =   0.0073895
        k(    7) = (   0.2000000   0.2000000   0.2000000), wk =   0.0088674
        k(    8) = (   0.1500000   0.1500000   0.1500000), wk =   0.0103453
        k(    9) = (   0.1000000   0.1000000   0.1000000), wk =   0.0118232
        k(   10) = (   0.0500000   0.0500000   0.0500000), wk =   0.0133011
        k(   11) = (   0.0000000   0.0000000   0.0000000), wk =   0.0147790
        k(   12) = (   0.0000000   0.1000000   0.0000000), wk =   0.0168691
        k(   13) = (   0.0000000   0.2000000   0.0000000), wk =   0.0189591
        k(   14) = (   0.0000000   0.3000000   0.0000000), wk =   0.0210492
        k(   15) = (   0.0000000   0.4000000   0.0000000), wk =   0.0231392
        k(   16) = (   0.0000000   0.5000000   0.0000000), wk =   0.0252293
        k(   17) = (   0.0000000   0.6000000   0.0000000), wk =   0.0273194
        k(   18) = (   0.0000000   0.7000000   0.0000000), wk =   0.0294094
        k(   19) = (   0.0000000   0.8000000   0.0000000), wk =   0.0314995
        k(   20) = (   0.0000000   0.9000000   0.0000000), wk =   0.0335896
        k(   21) = (   0.0000000   1.0000000   0.0000000), wk =   0.0356796
        k(   22) = (   0.0000000   0.9750000   0.0750000), wk =   0.0370621
        k(   23) = (   0.0000000   0.9500000   0.1500000), wk =   0.0384445
        k(   24) = (  -0.0000000   0.9250000   0.2250000), wk =   0.0398270
        k(   25) = (  -0.0000000   0.9000000   0.3000000), wk =   0.0412094
        k(   26) = (   0.0000000   0.8750000   0.3750000), wk =   0.0425919
        k(   27) = (   0.0000000   0.8500000   0.4500000), wk =   0.0439743
        k(   28) = (   0.0000000   0.8250000   0.5250000), wk =   0.0453568
        k(   29) = (  -0.0000000   0.8000000   0.6000000), wk =   0.0467392
        k(   30) = (  -0.0000000   0.7750000   0.6750000), wk =   0.0481217
        k(   31) = (   0.0000000   0.7500000   0.7500000), wk =   0.0495041
        k(   32) = (   0.0000000   0.7250000   0.7750000), wk =   0.0500266
        k(   33) = (   0.0000000   0.7000000   0.8000000), wk =   0.0505491
        k(   34) = (   0.0000000   0.6750000   0.8250000), wk =   0.0510717
        k(   35) = (   0.0000000   0.6500000   0.8500000), wk =   0.0515942
        k(   36) = (   0.0000000   0.6250000   0.8750000), wk =   0.0521167
        k(   37) = (   0.0000000   0.6000000   0.9000000), wk =   0.0526392
        k(   38) = (   0.0000000   0.5750000   0.9250000), wk =   0.0531617
        k(   39) = (   0.0000000   0.5500000   0.9500000), wk =   0.0536842
        k(   40) = (   0.0000000   0.5250000   0.9750000), wk =   0.0542067
        k(   41) = (   0.0000000   0.5000000   1.0000000), wk =   0.0547293
        k(   42) = (   0.0000000   0.4500000   0.9000000), wk =   0.0574942
        k(   43) = (  -0.0000000   0.4000000   0.8000000), wk =   0.0602591
        k(   44) = (  -0.0000000   0.3500000   0.7000000), wk =   0.0630239
        k(   45) = (  -0.0000000   0.3000000   0.6000000), wk =   0.0657888
        k(   46) = (   0.0000000   0.2500000   0.5000000), wk =   0.0685537
        k(   47) = (   0.0000000   0.2000000   0.4000000), wk =   0.0713186
        k(   48) = (   0.0000000   0.1500000   0.3000000), wk =   0.0740835
        k(   49) = (  -0.0000000   0.1000000   0.2000000), wk =   0.0768484
        k(   50) = (  -0.0000000   0.0500000   0.1000000), wk =   0.0796133
        k(   51) = (   0.0000000   0.0000000   0.0000000), wk =   0.0823782

     Dense  grid:    12939 G-vectors     FFT dimensions: (  36,  36,  36)

     Largest allocated arrays     est. size (Mb)     dimensions
        Kohn-Sham Wavefunctions         0.25 Mb     (    1639,   10)
        NL pseudopotentials             0.55 Mb     (    1639,   22)
        Each V/rho on FFT grid          0.71 Mb     (   46656)
        Each G-vector array             0.10 Mb     (   12939)
        G-vector shells                 0.00 Mb     (     180)
     Largest temporary arrays     est. size (Mb)     dimensions
        Auxiliary wavefunctions         1.00 Mb     (    1639,   40)
        Each subspace H/S matrix        0.02 Mb     (      40,   40)
        Each <psi_i|beta_j> matrix      0.00 Mb     (      22,   10)

     The potential is recalculated from file :
     ./out/Si.save/charge-density.dat

     Starting wfc are   32 randomized atomic wfcs

     Band Structure Calculation
     Davidson diagonalization with overlap

     ethr =  4.00E-11,  avg # of iterations = 14.3

     total cpu time spent up to now is       29.2 secs

     End of band structure calculation

          k = 0.5000 0.5000 0.5000 (  1622 PWs)   bands (ev):

    -3.1460   0.0110   5.1474   5.1474   8.7038  10.9784  10.9784  16.7931
    17.7758  17.7758

          k = 0.4500 0.4500 0.4500 (  1610 PWs)   bands (ev):

    -3.2449   0.1664   5.1644   5.1644   8.7227  10.9818  10.9818  16.6368
    17.1882  17.1882

          k = 0.4000 0.4000 0.4000 (  1616 PWs)   bands (ev):

    -3.4934   0.5835   5.2146   5.2146   8.7786  10.9857  10.9857  16.1073
    16.4146  16.4146

          k = 0.3500 0.3500 0.3500 (  1610 PWs)   bands (ev):

    -3.8069   1.1759   5.2967   5.2967   8.8690  10.9713  10.9713  15.2894
    15.7488  15.7488

          k = 0.3000 0.3000 0.3000 (  1615 PWs)   bands (ev):

    -4.1272   1.8812   5.4075   5.4075   8.9892  10.9107  10.9107  14.3539
    15.2450  15.2450

          k = 0.2500 0.2500 0.2500 (  1618 PWs)   bands (ev):

    -4.4227   2.6613   5.5419   5.5419   9.1316  10.7788  10.7788  13.3807
    14.9341  14.9341

          k = 0.2000 0.2000 0.2000 (  1606 PWs)   bands (ev):

    -4.6769   3.4886   5.6916   5.6916   9.2845  10.5747  10.5747  12.4044
    14.8160  14.8160

          k = 0.1500 0.1500 0.1500 (  1600 PWs)   bands (ev):

    -4.8808   4.3334   5.8436   5.8436   9.4299  10.3309  10.3309  11.4549
    14.8506  14.8506

          k = 0.1000 0.1000 0.1000 (  1606 PWs)   bands (ev):

    -5.0292   5.1472   5.9795   5.9795   9.5360  10.0997  10.0997  10.5897
    14.9688  14.9688

          k = 0.0500 0.0500 0.0500 (  1630 PWs)   bands (ev):

    -5.1193   5.8206   6.0759   6.0759   9.5024   9.9342   9.9342   9.9954
    15.0898  15.0898

          k = 0.0000 0.0000 0.0000 (  1639 PWs)   bands (ev):

    -5.1495   6.1111   6.1111   6.1111   9.3508   9.8740   9.8740   9.8740
    15.1406  15.1406

          k = 0.0000 0.1000 0.0000 (  1627 PWs)   bands (ev):

    -5.1092   5.8305   6.0089   6.0089   9.6243   9.8182  10.0292  10.0292
    14.9613  15.1879

          k = 0.0000 0.2000 0.0000 (  1599 PWs)   bands (ev):

    -4.9887   5.1745   5.7472   5.7472   9.6665  10.2331  10.4498  10.4498
    14.5385  15.3296

          k = 0.0000 0.3000 0.0000 (  1607 PWs)   bands (ev):

    -4.7887   4.3701   5.4085   5.4085   9.4559  10.8433  11.0518  11.0518
    14.1413  15.5657

          k = 0.0000 0.4000 0.0000 (  1607 PWs)   bands (ev):

    -4.5106   3.5163   5.0559   5.0559   9.2279  11.1158  11.7706  11.7706
    14.1298  15.8959

          k = 0.0000 0.5000 0.0000 (  1612 PWs)   bands (ev):

    -4.1563   2.6519   4.7259   4.7259   9.0180  10.9087  12.5675  12.5675
    14.6746  16.3196

          k = 0.0000 0.6000 0.0000 (  1620 PWs)   bands (ev):

    -3.7285   1.7954   4.4392   4.4392   8.8532  10.4635  13.4196  13.4196
    15.5514  16.8364

          k = 0.0000 0.7000 0.0000 (  1632 PWs)   bands (ev):

    -3.2303   0.9578   4.2077   4.2077   8.7525   9.9847  14.3118  14.3118
    16.5611  17.4454

          k = 0.0000 0.8000 0.0000 (  1624 PWs)   bands (ev):

    -2.6659   0.1479   4.0383   4.0383   8.7298   9.5553  15.2283  15.2283
    17.6171  18.1457

          k = 0.0000 0.9000 0.0000 (  1608 PWs)   bands (ev):

    -2.0400  -0.6265   3.9353   3.9353   8.7946   9.2074  16.1279  16.1279
    18.4757  18.4757

          k = 0.0000 1.0000 0.0000 (  1604 PWs)   bands (ev):

    -1.3581  -1.3581   3.9007   3.9007   8.9529   8.9529  16.6944  16.6944
    17.8977  17.8977

          k = 0.0000 0.9750 0.0750 (  1618 PWs)   bands (ev):

    -1.5279  -1.1770   3.8671   3.8716   8.9981   9.0993  16.4093  16.5474
    17.6573  17.7981

          k = 0.0000 0.9500 0.1500 (  1622 PWs)   bands (ev):

    -1.6787  -0.9955   3.7697   3.8035   9.2290   9.4215  15.5787  16.2257
    17.1869  17.8503

          k =-0.0000 0.9250 0.2250 (  1622 PWs)   bands (ev):

    -1.8052  -0.8272   3.6268   3.7334   9.6214   9.8918  14.5535  15.7670
    16.7475  17.9610

          k =-0.0000 0.9000 0.3000 (  1623 PWs)   bands (ev):

    -1.9038  -0.6877   3.4643   3.6974  10.1441  10.4813  13.5058  15.2002
    16.3939  17.9532

          k = 0.0000 0.8750 0.3750 (  1614 PWs)   bands (ev):

    -1.9725  -0.5908   3.3058   3.7216  10.7682  11.1644  12.4958  14.5862
    16.0933  17.7627

          k = 0.0000 0.8500 0.4500 (  1612 PWs)   bands (ev):

    -2.0100  -0.5445   3.1692   3.8141  11.4696  11.5282  11.9508  13.9685
    15.8153  17.4370

          k = 0.0000 0.8250 0.5250 (  1611 PWs)   bands (ev):

    -2.0156  -0.5483   3.0669   3.9607  10.7022  12.2279  12.7579  13.3705
    15.5467  17.0315

          k =-0.0000 0.8000 0.6000 (  1614 PWs)   bands (ev):

    -1.9893  -0.5946   3.0069   4.1225  10.0103  12.7905  13.0385  13.6174
    15.2854  16.5871

          k =-0.0000 0.7750 0.6750 (  1621 PWs)   bands (ev):

    -1.9307  -0.6739   2.9939   4.2384   9.5243  12.2701  13.8412  14.4745
    15.0442  16.1573

          k = 0.0000 0.7500 0.7500 (  1624 PWs)   bands (ev):

    -1.8399  -0.7784   3.0299   4.2434   9.3084  11.7864  14.4896  14.9865
    15.0840  15.9852

          k = 0.0000 0.7250 0.7750 (  1616 PWs)   bands (ev):

    -1.8342  -0.7825   3.0334   4.2246   9.3459  11.7900  14.3662  14.9601
    15.1097  16.1064

          k = 0.0000 0.7000 0.8000 (  1621 PWs)   bands (ev):

    -1.8173  -0.7950   3.0440   4.1704   9.4564  11.8008  14.1323  14.6917
    15.3430  16.3652

          k = 0.0000 0.6750 0.8250 (  1620 PWs)   bands (ev):

    -1.7891  -0.8163   3.0616   4.0869   9.6341  11.8187  13.8754  14.3772
    15.5990  16.6599

          k = 0.0000 0.6500 0.8500 (  1616 PWs)   bands (ev):

    -1.7497  -0.8471   3.0860   3.9826   9.8713  11.8436  13.6136  14.0486
    15.8595  16.9513

          k = 0.0000 0.6250 0.8750 (  1616 PWs)   bands (ev):

    -1.6991  -0.8883   3.1171   3.8664  10.1594  11.8753  13.3525  13.7169
    16.1186  17.2156

          k = 0.0000 0.6000 0.9000 (  1613 PWs)   bands (ev):

    -1.6372  -0.9409   3.1548   3.7471  10.4908  11.9137  13.0949  13.3871
    16.3733  17.4263

          k = 0.0000 0.5750 0.9250 (  1615 PWs)   bands (ev):

    -1.5643  -1.0057   3.1986   3.6318  10.8586  11.9584  12.8426  13.0619
    16.6213  17.5510

          k = 0.0000 0.5500 0.9500 (  1615 PWs)   bands (ev):

    -1.4803  -1.0835   3.2484   3.5267  11.2572  12.0092  12.5971  12.7431
    16.8602  17.5639

          k = 0.0000 0.5250 0.9750 (  1615 PWs)   bands (ev):

    -1.3853  -1.1748   3.3036   3.4364  11.6820  12.0654  12.3598  12.4319
    17.0868  17.4690

          k = 0.0000 0.5000 1.0000 (  1628 PWs)   bands (ev):

    -1.2795  -1.2795   3.3640   3.3640  12.1143  12.1143  12.1442  12.1442
    17.2967  17.2967

          k = 0.0000 0.4500 0.9000 (  1616 PWs)   bands (ev):

    -1.7701  -0.7896   3.2108   3.6448  11.5019  11.7874  11.9155  13.5162
    16.3338  17.6966

          k =-0.0000 0.4000 0.8000 (  1616 PWs)   bands (ev):

    -2.3243  -0.2111   3.2497   3.9742  10.9718  11.5031  11.8083  14.9114
    15.4061  17.1575

          k =-0.0000 0.3500 0.7000 (  1618 PWs)   bands (ev):

    -2.8957   0.4541   3.4530   4.3330  10.5430  11.2655  11.8102  14.2314
    16.3797  16.6531

          k =-0.0000 0.3000 0.6000 (  1609 PWs)   bands (ev):

    -3.4436   1.2033   3.7847   4.7001  10.2173  11.0422  11.9254  13.2946
    15.6492  18.1632

          k = 0.0000 0.2500 0.5000 (  1610 PWs)   bands (ev):

    -3.9391   2.0318   4.2094   5.0558   9.9931  10.7992  12.1222  12.4276
    15.0015  17.0695

          k = 0.0000 0.2000 0.4000 (  1613 PWs)   bands (ev):

    -4.3627   2.9309   4.6911   5.3839   9.8641  10.5202  11.6451  12.2408
    14.4385  16.0221

          k = 0.0000 0.1500 0.3000 (  1607 PWs)   bands (ev):

    -4.7020   3.8834   5.1878   5.6709   9.8168  10.2176  10.9613  11.8563
    14.2497  15.4704

          k =-0.0000 0.1000 0.2000 (  1600 PWs)   bands (ev):

    -4.9491   4.8484   5.6441   5.9018   9.8266   9.9224  10.4018  10.9561
    14.5554  15.2422

          k =-0.0000 0.0500 0.1000 (  1623 PWs)   bands (ev):

    -5.0992   5.7072   5.9825   6.0561   9.6173   9.8580  10.0158  10.1228
    14.9586  15.1600

          k = 0.0000 0.0000 0.0000 (  1639 PWs)   bands (ev):

    -5.1495   6.1111   6.1111   6.1111   9.3508   9.8740   9.8740   9.8740
    15.1406  15.1406

     Writing output data file Si.save

     init_run     :      0.13s CPU      0.14s WALL (       1 calls)
     electrons    :     25.45s CPU     27.71s WALL (       1 calls)

     Called by init_run:
     wfcinit      :      0.00s CPU      0.00s WALL (       1 calls)
     potinit      :      0.04s CPU      0.04s WALL (       1 calls)

     Called by electrons:
     c_bands      :     25.45s CPU     27.71s WALL (       1 calls)
     v_of_rho     :      0.03s CPU      0.03s WALL (       1 calls)

     Called by c_bands:
     init_us_2    :      0.09s CPU      0.09s WALL (      51 calls)
     cegterg      :     19.80s CPU     21.64s WALL (      52 calls)

     Called by *egterg:
     h_psi        :     21.30s CPU     23.26s WALL (     834 calls)
     g_psi        :      0.05s CPU      0.06s WALL (     731 calls)
     cdiaghg      :      0.37s CPU      0.40s WALL (     782 calls)

     Called by h_psi:
     add_vuspsi   :      0.60s CPU      0.67s WALL (     834 calls)

     General routines
     calbec       :      0.68s CPU      0.75s WALL (     834 calls)
     fft          :      0.02s CPU      0.02s WALL (      10 calls)
     fftw         :     18.90s CPU     20.60s WALL (   14574 calls)
     davcio       :      0.00s CPU      0.01s WALL (      51 calls)

     Parallel routines
     fft_scatter  :      0.46s CPU      0.49s WALL (   14584 calls)

     PWSCF        :    26.93s CPU        29.35s WALL


   This run was terminated on:  20:53:43  13Feb2023            

=------------------------------------------------------------------------------=
   JOB DONE.
=------------------------------------------------------------------------------=
