
     Program PWSCF v.5.1 starts on 13Feb2023 at 20:52:35 

     This program is part of the open-source Quantum ESPRESSO suite
     for quantum simulation of materials; please cite
         "P. Giannozzi et al., J. Phys.:Condens. Matter 21 395502 (2009);
          URL http://www.quantum-espresso.org", 
     in publications or presentations arising from this work. More details at
     http://www.quantum-espresso.org/quote

     Parallel version (MPI), running on     1 processors
     Waiting for input...
     Reading input from standard input

     Current dimensions of program PWSCF are:
     Max number of different atomic species (ntypx) = 10
     Max number of k-points (npk) =  40000
     Max angular momentum in pseudopotentials (lmaxx) =  3

     Atomic positions and unit cell read from directory:
     ./out/Si.save/

               file Si.pbe-mt_fhi.UPF: wavefunction(s)  4f renormalized

     Subspace diagonalization in iterative solution of the eigenvalue problem:
     a serial algorithm will be used


     G-vector sticks info
     --------------------
     sticks:   dense  smooth     PW     G-vecs:    dense   smooth      PW
     Sum         733     733    223                12939    12939    2229



     bravais-lattice index     =            2
     lattice parameter (alat)  =      10.2623  a.u.
     unit-cell volume          =     270.1967 (a.u.)^3
     number of atoms/cell      =            2
     number of atomic types    =            1
     number of electrons       =         4.00
     number of Kohn-Sham states=           10
     kinetic-energy cutoff     =      50.0000  Ry
     charge density cutoff     =     200.0000  Ry
     Exchange-correlation      = PBE ( 1  4  3  4 0)

     celldm(1)=  10.262347  celldm(2)=   0.000000  celldm(3)=   0.000000
     celldm(4)=   0.000000  celldm(5)=   0.000000  celldm(6)=   0.000000

     crystal axes: (cart. coord. in units of alat)
               a(1) = (  -0.500000   0.000000   0.500000 )  
               a(2) = (   0.000000   0.500000   0.500000 )  
               a(3) = (  -0.500000   0.500000   0.000000 )  

     reciprocal axes: (cart. coord. in units 2 pi/alat)
               b(1) = ( -1.000000 -1.000000  1.000000 )  
               b(2) = (  1.000000  1.000000  1.000000 )  
               b(3) = ( -1.000000  1.000000 -1.000000 )  


     PseudoPot. # 1 for Si read from file:
     /home/acedemo/psudo/Si.pbe-mt_fhi.UPF
     MD5 check sum: 259057c2adf9952f9ced37ae3d9e311d
     Pseudo is Norm-conserving, Zval =  4.0
     Generated using FHI98PP, converted with fhi2upf.x v.5.0.2
     Using radial grid of  495 points,  3 beta functions with: 
                l(1) =   0
                l(2) =   1
                l(3) =   3

     atomic species   valence    mass     pseudopotential
        Si             4.00    28.08550     Si( 1.00)

     48 Sym. Ops., with inversion, found (24 have fractional translation)



   Cartesian axes

     site n.     atom                  positions (alat units)
         1           Si  tau(   1) = (   0.0000000   0.0000000   0.0000000  )
         2           Si  tau(   2) = (   0.2500000   0.2500000   0.2500000  )

     number of k points=    72 (tetrahedron method)
                       cart. coord. in units 2pi/alat
        k(    1) = (   0.0000000   0.0000000   0.0000000), wk =   0.0011574
        k(    2) = (  -0.0833333   0.0833333  -0.0833333), wk =   0.0092593
        k(    3) = (  -0.1666667   0.1666667  -0.1666667), wk =   0.0092593
        k(    4) = (  -0.2500000   0.2500000  -0.2500000), wk =   0.0092593
        k(    5) = (  -0.3333333   0.3333333  -0.3333333), wk =   0.0092593
        k(    6) = (  -0.4166667   0.4166667  -0.4166667), wk =   0.0092593
        k(    7) = (   0.5000000  -0.5000000   0.5000000), wk =   0.0046296
        k(    8) = (   0.0000000   0.1666667   0.0000000), wk =   0.0069444
        k(    9) = (  -0.0833333   0.2500000  -0.0833333), wk =   0.0277778
        k(   10) = (  -0.1666667   0.3333333  -0.1666667), wk =   0.0277778
        k(   11) = (  -0.2500000   0.4166667  -0.2500000), wk =   0.0277778
        k(   12) = (  -0.3333333   0.5000000  -0.3333333), wk =   0.0277778
        k(   13) = (   0.5833333  -0.4166667   0.5833333), wk =   0.0277778
        k(   14) = (   0.5000000  -0.3333333   0.5000000), wk =   0.0277778
        k(   15) = (   0.4166667  -0.2500000   0.4166667), wk =   0.0277778
        k(   16) = (   0.3333333  -0.1666667   0.3333333), wk =   0.0277778
        k(   17) = (   0.2500000  -0.0833333   0.2500000), wk =   0.0277778
        k(   18) = (   0.1666667  -0.0000000   0.1666667), wk =   0.0138889
        k(   19) = (   0.0000000   0.3333333   0.0000000), wk =   0.0069444
        k(   20) = (  -0.0833333   0.4166667  -0.0833333), wk =   0.0277778
        k(   21) = (  -0.1666667   0.5000000  -0.1666667), wk =   0.0277778
        k(   22) = (  -0.2500000   0.5833333  -0.2500000), wk =   0.0277778
        k(   23) = (   0.6666667  -0.3333333   0.6666667), wk =   0.0277778
        k(   24) = (   0.5833333  -0.2500000   0.5833333), wk =   0.0277778
        k(   25) = (   0.5000000  -0.1666667   0.5000000), wk =   0.0277778
        k(   26) = (   0.4166667  -0.0833333   0.4166667), wk =   0.0277778
        k(   27) = (   0.3333333   0.0000000   0.3333333), wk =   0.0138889
        k(   28) = (   0.0000000   0.5000000   0.0000000), wk =   0.0069444
        k(   29) = (  -0.0833333   0.5833333  -0.0833333), wk =   0.0277778
        k(   30) = (  -0.1666667   0.6666667  -0.1666667), wk =   0.0277778
        k(   31) = (   0.7500000  -0.2500000   0.7500000), wk =   0.0277778
        k(   32) = (   0.6666667  -0.1666667   0.6666667), wk =   0.0277778
        k(   33) = (   0.5833333  -0.0833333   0.5833333), wk =   0.0277778
        k(   34) = (   0.5000000   0.0000000   0.5000000), wk =   0.0138889
        k(   35) = (   0.0000000   0.6666667   0.0000000), wk =   0.0069444
        k(   36) = (  -0.0833333   0.7500000  -0.0833333), wk =   0.0277778
        k(   37) = (   0.8333333  -0.1666667   0.8333333), wk =   0.0277778
        k(   38) = (   0.7500000  -0.0833333   0.7500000), wk =   0.0277778
        k(   39) = (   0.6666667   0.0000000   0.6666667), wk =   0.0138889
        k(   40) = (   0.0000000   0.8333333   0.0000000), wk =   0.0069444
        k(   41) = (   0.9166667  -0.0833333   0.9166667), wk =   0.0277778
        k(   42) = (   0.8333333   0.0000000   0.8333333), wk =   0.0138889
        k(   43) = (   0.0000000  -1.0000000   0.0000000), wk =   0.0034722
        k(   44) = (  -0.1666667   0.3333333   0.0000000), wk =   0.0277778
        k(   45) = (  -0.2500000   0.4166667  -0.0833333), wk =   0.0555556
        k(   46) = (  -0.3333333   0.5000000  -0.1666667), wk =   0.0555556
        k(   47) = (   0.5833333  -0.4166667   0.7500000), wk =   0.0555556
        k(   48) = (   0.5000000  -0.3333333   0.6666667), wk =   0.0277778
        k(   49) = (  -0.1666667   0.5000000   0.0000000), wk =   0.0277778
        k(   50) = (  -0.2500000   0.5833333  -0.0833333), wk =   0.0555556
        k(   51) = (   0.6666667  -0.3333333   0.8333333), wk =   0.0555556
        k(   52) = (   0.5833333  -0.2500000   0.7500000), wk =   0.0555556
        k(   53) = (   0.5000000  -0.1666667   0.6666667), wk =   0.0555556
        k(   54) = (   0.4166667  -0.0833333   0.5833333), wk =   0.0555556
        k(   55) = (   0.3333333   0.0000000   0.5000000), wk =   0.0277778
        k(   56) = (  -0.1666667   0.6666667  -0.0000000), wk =   0.0277778
        k(   57) = (   0.7500000  -0.2500000   0.9166667), wk =   0.0555556
        k(   58) = (   0.6666667  -0.1666667   0.8333333), wk =   0.0555556
        k(   59) = (   0.5833333  -0.0833333   0.7500000), wk =   0.0555556
        k(   60) = (   0.5000000   0.0000000   0.6666667), wk =   0.0277778
        k(   61) = (   0.8333333  -0.1666667   1.0000000), wk =   0.0277778
        k(   62) = (   0.7500000  -0.0833333   0.9166667), wk =   0.0555556
        k(   63) = (   0.6666667   0.0000000   0.8333333), wk =   0.0277778
        k(   64) = (  -0.1666667  -1.0000000   0.0000000), wk =   0.0138889
        k(   65) = (   0.6666667  -0.3333333   1.0000000), wk =   0.0277778
        k(   66) = (   0.5833333  -0.2500000   0.9166667), wk =   0.0555556
        k(   67) = (   0.5000000  -0.1666667   0.8333333), wk =   0.0277778
        k(   68) = (   0.6666667  -0.1666667   1.0000000), wk =   0.0277778
        k(   69) = (   0.5833333  -0.0833333   0.9166667), wk =   0.0555556
        k(   70) = (   0.5000000   0.0000000   0.8333333), wk =   0.0277778
        k(   71) = (  -0.3333333  -1.0000000   0.0000000), wk =   0.0138889
        k(   72) = (  -0.5000000  -1.0000000   0.0000000), wk =   0.0069444

     Dense  grid:    12939 G-vectors     FFT dimensions: (  36,  36,  36)

     Largest allocated arrays     est. size (Mb)     dimensions
        Kohn-Sham Wavefunctions         0.25 Mb     (    1639,   10)
        NL pseudopotentials             0.55 Mb     (    1639,   22)
        Each V/rho on FFT grid          0.71 Mb     (   46656)
        Each G-vector array             0.10 Mb     (   12939)
        G-vector shells                 0.00 Mb     (     180)
     Largest temporary arrays     est. size (Mb)     dimensions
        Auxiliary wavefunctions         1.00 Mb     (    1639,   40)
        Each subspace H/S matrix        0.02 Mb     (      40,   40)
        Each <psi_i|beta_j> matrix      0.00 Mb     (      22,   10)

     The potential is recalculated from file :
     ./out/Si.save/charge-density.dat

     Starting wfc are   32 randomized atomic wfcs

     Band Structure Calculation
     Davidson diagonalization with overlap

     ethr =  4.00E-11,  avg # of iterations = 15.5

     total cpu time spent up to now is       32.1 secs

     End of band structure calculation

          k = 0.0000 0.0000 0.0000 (  1639 PWs)   bands (ev):

    -5.1495   6.1111   6.1111   6.1111   9.3508   9.8740   9.8740   9.8740
    15.1406  15.1406

          k =-0.0833 0.0833-0.0833 (  1612 PWs)   bands (ev):

    -5.0658   5.3959   6.0172   6.0172   9.5502  10.0349  10.0349  10.3441
    15.0128  15.0128

          k =-0.1667 0.1667-0.1667 (  1591 PWs)   bands (ev):

    -4.8188   4.0522   5.7937   5.7937   9.3838  10.4135  10.4135  11.7659
    14.8260  14.8260

          k =-0.2500 0.2500-0.2500 (  1618 PWs)   bands (ev):

    -4.4227   2.6613   5.5419   5.5419   9.1316  10.7788  10.7788  13.3807
    14.9341  14.9341

          k =-0.3333 0.3333-0.3333 (  1616 PWs)   bands (ev):

    -3.9149   1.4007   5.3306   5.3306   8.9061  10.9577  10.9577  14.9851
    15.5609  15.5609

          k =-0.4167 0.4167-0.4167 (  1616 PWs)   bands (ev):

    -3.3994   0.4210   5.1942   5.1942   8.7560  10.9852  10.9852  16.3256
    16.6644  16.6644

          k = 0.5000-0.5000 0.5000 (  1622 PWs)   bands (ev):

    -3.1460   0.0110   5.1474   5.1474   8.7038  10.9784  10.9784  16.7931
    17.7758  17.7758

          k = 0.0000 0.1667 0.0000 (  1615 PWs)   bands (ev):

    -5.0377   5.4177   5.8469   5.8469   9.7257  10.0142  10.2854  10.2854
    14.6920  15.2719

          k =-0.0833 0.2500-0.0833 (  1599 PWs)   bands (ev):

    -4.8443   4.3725   5.5825   5.6859   9.7262  10.0854  10.7358  11.3834
    14.3788  15.3207

          k =-0.1667 0.3333-0.1667 (  1610 PWs)   bands (ev):

    -4.4957   3.0484   5.3239   5.4408   9.6069  10.3635  11.1595  12.6120
    14.5331  15.4561

          k =-0.2500 0.4167-0.2500 (  1606 PWs)   bands (ev):

    -4.0185   1.7707   5.1308   5.1595   9.3938  10.7022  11.3624  13.5338
    15.5466  16.0129

          k =-0.3333 0.5000-0.3333 (  1616 PWs)   bands (ev):

    -3.4852   0.6949   4.9177   5.0305   9.2258  10.8664  11.3510  14.5736
    16.8996  17.0394

          k = 0.5833-0.4167 0.5833 (  1615 PWs)   bands (ev):

    -3.1010   0.0593   4.7558   5.0317   9.1428  10.9470  11.2582  15.8549
    17.1610  17.7468

          k = 0.5000-0.3333 0.5000 (  1616 PWs)   bands (ev):

    -3.1918   0.2014   4.6941   5.1316   9.1583  11.0360  11.1653  16.0846
    16.3774  17.2067

          k = 0.4167-0.2500 0.4167 (  1611 PWs)   bands (ev):

    -3.6626   1.0232   4.7429   5.3172   9.2700  11.0546  11.1152  14.8057
    15.1945  17.3153

          k = 0.3333-0.1667 0.3333 (  1605 PWs)   bands (ev):

    -4.1905   2.1817   4.9055   5.5628   9.4601  10.8287  11.0488  13.5604
    14.4904  16.1000

          k = 0.2500-0.0833 0.2500 (  1600 PWs)   bands (ev):

    -4.6291   3.4747   5.1811   5.8192   9.6833  10.4543  10.6763  12.3637
    14.3478  15.3629

          k = 0.1667-0.0000 0.1667 (  1592 PWs)   bands (ev):

    -4.9274   4.6829   5.5811   6.0028   9.7772  10.1132  10.1851  11.1772
    14.6127  15.1477

          k = 0.0000 0.3333 0.0000 (  1607 PWs)   bands (ev):

    -4.7046   4.0884   5.2903   5.2903   9.3799  10.9880  11.2808  11.2808
    14.0766  15.6653

          k =-0.0833 0.4167-0.0833 (  1616 PWs)   bands (ev):

    -4.4058   3.1315   5.0102   5.0170   9.4048  10.9091  11.8267  12.0241
    14.4275  15.9333

          k =-0.1667 0.5000-0.1667 (  1611 PWs)   bands (ev):

    -3.9668   1.9943   4.6644   4.8210   9.5982  11.0082  12.1400  12.2881
    15.6833  16.4661

          k =-0.2500 0.5833-0.2500 (  1610 PWs)   bands (ev):

    -3.4370   0.9277   4.3143   4.7294   9.6401  11.2601  12.1615  12.8052
    17.2401  17.4425

          k = 0.6667-0.3333 0.6667 (  1607 PWs)   bands (ev):

    -2.9624   0.1512   4.0384   4.7506   9.6356  11.3476  12.0280  13.9407
    17.2877  17.7172

          k = 0.5833-0.2500 0.5833 (  1602 PWs)   bands (ev):

    -2.8785   0.0281   3.8808   4.8800   9.6885  11.4073  11.8544  15.4175
    15.9219  16.2105

          k = 0.5000-0.1667 0.5000 (  1610 PWs)   bands (ev):

    -3.2758   0.6468   3.8709   5.1006   9.8130  11.4883  11.6437  14.5110
    14.9706  17.0171

          k = 0.4167-0.0833 0.4167 (  1613 PWs)   bands (ev):

    -3.8112   1.6242   4.0447   5.3781   9.9738  11.3017  11.4412  13.3790
    14.2335  17.7725

          k = 0.3333 0.0000 0.3333 (  1604 PWs)   bands (ev):

    -4.2849   2.6478   4.4698   5.6500  10.0419  10.8261  11.0069  12.8039
    14.0804  16.3367

          k = 0.0000 0.5000 0.0000 (  1612 PWs)   bands (ev):

    -4.1563   2.6519   4.7259   4.7259   9.0180  10.9087  12.5675  12.5675
    14.6746  16.3196

          k =-0.0833 0.5833-0.0833 (  1617 PWs)   bands (ev):

    -3.7596   1.8158   4.3950   4.5133   9.0956  10.7064  12.9085  13.1079
    15.7788  16.8401

          k =-0.1667 0.6667-0.1667 (  1620 PWs)   bands (ev):

    -3.2486   0.9053   3.9491   4.4096   9.3471  11.0418  12.8478  13.2660
    17.3814  17.7839

          k = 0.7500-0.2500 0.7500 (  1617 PWs)   bands (ev):

    -2.7215   0.1204   3.5349   4.4253   9.4725  12.0429  12.7523  13.1515
    17.4209  17.7477

          k = 0.6667-0.1667 0.6667 (  1607 PWs)   bands (ev):

    -2.4767  -0.2017   3.2617   4.5577   9.6000  12.6118  12.9214  13.5504
    15.8458  16.1801

          k = 0.5833-0.0833 0.5833 (  1611 PWs)   bands (ev):

    -2.7836   0.2011   3.2015   4.7897   9.7922  12.5771  12.5972  14.3313
    14.9479  15.2009

          k = 0.5000 0.0000 0.5000 (  1604 PWs)   bands (ev):

    -3.3146   0.9326   3.4372   5.0855   9.9923  11.9957  12.2728  13.3732
    14.3081  16.9604

          k = 0.0000 0.6667 0.0000 (  1624 PWs)   bands (ev):

    -3.4039   1.2343   4.2782   4.2782   8.7780  10.1413  14.0108  14.0108
    16.2165  17.2322

          k =-0.0833 0.7500-0.0833 (  1618 PWs)   bands (ev):

    -2.9207   0.5013   3.9612   4.1512   8.9365   9.9827  14.3560  14.4959
    17.4804  18.0195

          k = 0.8333-0.1667 0.8333 (  1619 PWs)   bands (ev):

    -2.3712  -0.2031   3.4869   4.1465   9.1738  10.5680  14.3151  14.4993
    17.5460  17.8377

          k = 0.7500-0.0833 0.7500 (  1620 PWs)   bands (ev):

    -2.0045  -0.6129   3.0881   4.2640   9.3284  11.8214  14.2162  14.2231
    15.8598  16.3086

          k = 0.6667 0.0000 0.6667 (  1612 PWs)   bands (ev):

    -2.2608  -0.3305   2.9476   4.4894   9.5467  13.4141  13.5779  13.9784
    14.4006  15.2883

          k = 0.0000 0.8333 0.0000 (  1628 PWs)   bands (ev):

    -2.4638  -0.1145   3.9965   3.9965   8.7413   9.4294  15.5342  15.5342
    17.9714  18.3992

          k = 0.9167-0.0833 0.9167 (  1622 PWs)   bands (ev):

    -1.9118  -0.7539   3.7401   3.9638   8.9636   9.4494  15.8916  15.8984
    17.7009  17.9202

          k = 0.8333 0.0000 0.8333 (  1614 PWs)   bands (ev):

    -1.5547  -1.0999   3.3303   4.0565   9.1170  10.3822  15.4317  15.7969
    16.0799  16.7580

          k = 0.0000-1.0000 0.0000 (  1604 PWs)   bands (ev):

    -1.3581  -1.3581   3.9007   3.9007   8.9529   8.9529  16.6944  16.6944
    17.8977  17.8977

          k =-0.1667 0.3333 0.0000 (  1603 PWs)   bands (ev):

    -4.5988   3.5617   5.0236   5.5806   9.8247  10.3193  11.1770  12.0631
    14.2446  15.6067

          k =-0.2500 0.4167-0.0833 (  1607 PWs)   bands (ev):

    -4.2046   2.4514   4.5937   5.3704   9.9653  10.5115  11.6413  12.5697
    14.6294  16.3283

          k =-0.3333 0.5000-0.1667 (  1604 PWs)   bands (ev):

    -3.6972   1.3193   4.3334   5.1214   9.8555  10.8237  11.8320  13.2015
    15.4883  17.6050

          k = 0.5833-0.4167 0.7500 (  1612 PWs)   bands (ev):

    -3.1771   0.3929   4.1970   4.9317   9.7428  10.9265  11.8498  14.2741
    16.6866  17.1696

          k = 0.5000-0.3333 0.6667 (  1602 PWs)   bands (ev):

    -2.9175  -0.0064   4.1556   4.8612   9.7008  10.9341  11.8392  15.6226
    15.7092  17.7106

          k =-0.1667 0.5000 0.0000 (  1617 PWs)   bands (ev):

    -4.0592   2.3419   4.4658   4.9105   9.4824  10.9741  12.1126  12.5018
    15.0591  16.5392

          k =-0.2500 0.5833-0.0833 (  1611 PWs)   bands (ev):

    -3.5833   1.3966   4.0480   4.7017   9.7916  11.1599  12.0419  12.9737
    15.9213  17.7790

          k = 0.6667-0.3333 0.8333 (  1617 PWs)   bands (ev):

    -3.0446   0.4968   3.7429   4.5439   9.9319  11.4591  12.4234  13.1096
    17.0830  17.2731

          k = 0.5833-0.2500 0.7500 (  1607 PWs)   bands (ev):

    -2.6493  -0.0724   3.5398   4.5255  10.0117  11.3925  12.9625  13.7797
    15.6136  17.8441

          k = 0.5000-0.1667 0.6667 (  1605 PWs)   bands (ev):

    -2.7578   0.0777   3.4665   4.6510  10.1409  11.2963  12.8866  14.1394
    15.3329  16.5289

          k = 0.4167-0.0833 0.5833 (  1610 PWs)   bands (ev):

    -3.2462   0.8025   3.5731   4.8844  10.3151  11.1215  12.6485  13.0733
    15.3415  17.0315

          k = 0.3333 0.0000 0.5000 (  1606 PWs)   bands (ev):

    -3.7731   1.6787   3.9323   5.1603  10.4576  10.6232  12.3378  12.4695
    14.7362  17.8310

          k =-0.1667 0.6667-0.0000 (  1626 PWs)   bands (ev):

    -3.3215   1.0843   4.0372   4.3252   9.2488  10.4925  13.0419  13.9834
    16.5001  17.8455

          k = 0.7500-0.2500 0.9167 (  1621 PWs)   bands (ev):

    -2.7872   0.3150   3.6304   4.1721   9.6026  10.8494  12.8762  14.4211
    17.3531  17.5185

          k = 0.6667-0.1667 0.8333 (  1616 PWs)   bands (ev):

    -2.2975  -0.2988   3.2576   4.1739   9.7760  11.9612  12.6665  14.4168
    15.7100  17.8739

          k = 0.5833-0.0833 0.7500 (  1614 PWs)   bands (ev):

    -2.2591  -0.3413   3.0557   4.3227   9.9580  12.4523  13.4691  13.9210
    14.4887  16.4944

          k = 0.5000 0.0000 0.6667 (  1621 PWs)   bands (ev):

    -2.7140   0.1902   3.1331   4.5806  10.1911  11.9802  13.0110  13.8379
    15.2240  15.5396

          k = 0.8333-0.1667 1.0000 (  1617 PWs)   bands (ev):

    -2.4054  -0.1602   3.7910   3.9301   9.2042   9.8372  14.3972  15.5219
    17.6695  17.9697

          k = 0.7500-0.0833 0.9167 (  1620 PWs)   bands (ev):

    -1.8599  -0.7583   3.3998   3.9015   9.5237  10.4756  14.2055  15.5229
    16.2805  17.8068

          k = 0.6667 0.0000 0.8333 (  1620 PWs)   bands (ev):

    -1.7772  -0.8255   3.0689   4.0540   9.7070  11.8262  13.7883  14.2685
    15.6858  16.7586

          k =-0.1667-1.0000 0.0000 (  1622 PWs)   bands (ev):

    -1.3390  -1.3390   3.7517   3.7517   9.3946   9.3946  15.8183  15.8183
    17.4181  17.4181

          k = 0.6667-0.3333 1.0000 (  1610 PWs)   bands (ev):

    -3.0826   0.6947   3.5511   4.4555  10.4230  11.1913  11.8364  13.9130
    16.1270  17.1710

          k = 0.5833-0.2500 0.9167 (  1611 PWs)   bands (ev):

    -2.5474  -0.0001   3.2772   4.2218  10.7886  11.2806  12.3079  14.3775
    15.4087  16.9872

          k = 0.5000-0.1667 0.8333 (  1610 PWs)   bands (ev):

    -2.2574  -0.3520   3.1944   4.1293  10.8567  11.2094  13.5667  13.7532
    14.5758  17.9902

          k = 0.6667-0.1667 1.0000 (  1618 PWs)   bands (ev):

    -2.2436  -0.3046   3.3901   3.8513  10.3806  10.9238  12.6283  15.2787
    15.8658  17.6101

          k = 0.5833-0.0833 0.9167 (  1615 PWs)   bands (ev):

    -1.8035  -0.7676   3.1845   3.7437  10.7425  11.9826  12.3754  13.7730
    16.0562  17.8679

          k = 0.5000 0.0000 0.8333 (  1612 PWs)   bands (ev):

    -2.0173  -0.5418   3.0966   3.9077  10.9672  11.9700  12.4798  13.5666
    15.6355  17.1729

          k =-0.3333-1.0000 0.0000 (  1618 PWs)   bands (ev):

    -1.2998  -1.2998   3.4853   3.4853  10.5434  10.5434  13.9655  13.9655
    17.3104  17.3104

          k =-0.5000-1.0000 0.0000 (  1628 PWs)   bands (ev):

    -1.2795  -1.2795   3.3640   3.3640  12.1143  12.1143  12.1442  12.1442
    17.2967  17.2967

     the Fermi energy is     3.1706 ev

     Writing output data file Si.save

     init_run     :      0.16s CPU      0.17s WALL (       1 calls)
     electrons    :     30.69s CPU     31.45s WALL (       1 calls)

     Called by init_run:
     wfcinit      :      0.00s CPU      0.00s WALL (       1 calls)
     potinit      :      0.05s CPU      0.06s WALL (       1 calls)

     Called by electrons:
     c_bands      :     30.59s CPU     31.36s WALL (       1 calls)
     v_of_rho     :      0.04s CPU      0.05s WALL (       1 calls)

     Called by c_bands:
     init_us_2    :      0.10s CPU      0.10s WALL (      72 calls)
     cegterg      :     23.61s CPU     24.19s WALL (      74 calls)

     Called by *egterg:
     h_psi        :     25.75s CPU     26.42s WALL (    1259 calls)
     g_psi        :      0.06s CPU      0.06s WALL (    1113 calls)
     cdiaghg      :      0.47s CPU      0.48s WALL (    1185 calls)

     Called by h_psi:
     add_vuspsi   :      0.70s CPU      0.72s WALL (    1259 calls)

     General routines
     calbec       :      0.82s CPU      0.83s WALL (    1259 calls)
     fft          :      0.02s CPU      0.02s WALL (      10 calls)
     fftw         :     22.94s CPU     23.57s WALL (   20952 calls)
     davcio       :      0.01s CPU      0.01s WALL (      72 calls)

     Parallel routines
     fft_scatter  :      0.56s CPU      0.57s WALL (   20962 calls)

     PWSCF        :    32.60s CPU        33.44s WALL


   This run was terminated on:  20:53: 8  13Feb2023            

=------------------------------------------------------------------------------=
   JOB DONE.
=------------------------------------------------------------------------------=
