
     Program PWSCF v.5.1 starts on 13Feb2023 at 20:52:15 

     This program is part of the open-source Quantum ESPRESSO suite
     for quantum simulation of materials; please cite
         "P. Giannozzi et al., J. Phys.:Condens. Matter 21 395502 (2009);
          URL http://www.quantum-espresso.org", 
     in publications or presentations arising from this work. More details at
     http://www.quantum-espresso.org/quote

     Parallel version (MPI), running on     1 processors
     Waiting for input...
     Reading input from standard input

     Current dimensions of program PWSCF are:
     Max number of different atomic species (ntypx) = 10
     Max number of k-points (npk) =  40000
     Max angular momentum in pseudopotentials (lmaxx) =  3
               file Si.pbe-mt_fhi.UPF: wavefunction(s)  4f renormalized

     Subspace diagonalization in iterative solution of the eigenvalue problem:
     a serial algorithm will be used


     G-vector sticks info
     --------------------
     sticks:   dense  smooth     PW     G-vecs:    dense   smooth      PW
     Sum         733     733    211                12939    12939    2109



     bravais-lattice index     =            2
     lattice parameter (alat)  =      10.2623  a.u.
     unit-cell volume          =     270.1967 (a.u.)^3
     number of atoms/cell      =            2
     number of atomic types    =            1
     number of electrons       =         4.00
     number of Kohn-Sham states=           10
     kinetic-energy cutoff     =      50.0000  Ry
     charge density cutoff     =     200.0000  Ry
     convergence threshold     =      1.6E-09
     mixing beta               =       0.3000
     number of iterations used =            8  plain     mixing
     Exchange-correlation      = PBE ( 1  4  3  4 0)

     celldm(1)=  10.262347  celldm(2)=   0.000000  celldm(3)=   0.000000
     celldm(4)=   0.000000  celldm(5)=   0.000000  celldm(6)=   0.000000

     crystal axes: (cart. coord. in units of alat)
               a(1) = (  -0.500000   0.000000   0.500000 )  
               a(2) = (   0.000000   0.500000   0.500000 )  
               a(3) = (  -0.500000   0.500000   0.000000 )  

     reciprocal axes: (cart. coord. in units 2 pi/alat)
               b(1) = ( -1.000000 -1.000000  1.000000 )  
               b(2) = (  1.000000  1.000000  1.000000 )  
               b(3) = ( -1.000000  1.000000 -1.000000 )  


     PseudoPot. # 1 for Si read from file:
     /home/acedemo/psudo/Si.pbe-mt_fhi.UPF
     MD5 check sum: 259057c2adf9952f9ced37ae3d9e311d
     Pseudo is Norm-conserving, Zval =  4.0
     Generated using FHI98PP, converted with fhi2upf.x v.5.0.2
     Using radial grid of  495 points,  3 beta functions with: 
                l(1) =   0
                l(2) =   1
                l(3) =   3

     atomic species   valence    mass     pseudopotential
        Si             4.00    28.08550     Si( 1.00)

     48 Sym. Ops., with inversion, found (24 have fractional translation)



   Cartesian axes

     site n.     atom                  positions (alat units)
         1           Si  tau(   1) = (   0.0000000   0.0000000   0.0000000  )
         2           Si  tau(   2) = (   0.2500000   0.2500000   0.2500000  )

     number of k points=    10  Marzari-Vanderbilt smearing, width (Ry)=  0.0500
                       cart. coord. in units 2pi/alat
        k(    1) = (   0.0000000   0.0000000   0.0000000), wk =   0.0160000
        k(    2) = (  -0.2000000   0.2000000  -0.2000000), wk =   0.1280000
        k(    3) = (  -0.4000000   0.4000000  -0.4000000), wk =   0.1280000
        k(    4) = (   0.0000000   0.4000000   0.0000000), wk =   0.0960000
        k(    5) = (  -0.2000000   0.6000000  -0.2000000), wk =   0.3840000
        k(    6) = (   0.6000000  -0.2000000   0.6000000), wk =   0.3840000
        k(    7) = (   0.4000000   0.0000000   0.4000000), wk =   0.1920000
        k(    8) = (   0.0000000   0.8000000   0.0000000), wk =   0.0960000
        k(    9) = (   0.8000000   0.0000000   0.8000000), wk =   0.1920000
        k(   10) = (   0.6000000  -0.2000000   1.0000000), wk =   0.3840000

     Dense  grid:    12939 G-vectors     FFT dimensions: (  36,  36,  36)

     Largest allocated arrays     est. size (Mb)     dimensions
        Kohn-Sham Wavefunctions         0.25 Mb     (    1639,   10)
        NL pseudopotentials             0.55 Mb     (    1639,   22)
        Each V/rho on FFT grid          0.71 Mb     (   46656)
        Each G-vector array             0.10 Mb     (   12939)
        G-vector shells                 0.00 Mb     (     180)
     Largest temporary arrays     est. size (Mb)     dimensions
        Auxiliary wavefunctions         1.00 Mb     (    1639,   40)
        Each subspace H/S matrix        0.02 Mb     (      40,   40)
        Each <psi_i|beta_j> matrix      0.00 Mb     (      22,   10)
        Arrays for rho mixing           5.70 Mb     (   46656,    8)

     Initial potential from superposition of free atoms

     starting charge    7.99859, renormalised to    4.00000
     Starting wfc are   32 randomized atomic wfcs

     total cpu time spent up to now is        1.4 secs

     per-process dynamical memory:    15.9 Mb

     Self-consistent Calculation

     iteration #  1     ecut=    50.00 Ry     beta=0.30
     Davidson diagonalization with overlap
     ethr =  1.00E-02,  avg # of iterations =  2.1

     total cpu time spent up to now is        2.6 secs

     total energy              =     -16.97776059 Ry
     Harris-Foulkes estimate   =     -16.98044424 Ry
     estimated scf accuracy    <       0.04940462 Ry

     iteration #  2     ecut=    50.00 Ry     beta=0.30
     Davidson diagonalization with overlap
     ethr =  1.24E-03,  avg # of iterations =  1.0

     total cpu time spent up to now is        3.8 secs

     total energy              =     -16.97863079 Ry
     Harris-Foulkes estimate   =     -16.97809591 Ry
     estimated scf accuracy    <       0.02308126 Ry

     iteration #  3     ecut=    50.00 Ry     beta=0.30
     Davidson diagonalization with overlap
     ethr =  5.77E-04,  avg # of iterations =  1.0

     total cpu time spent up to now is        4.7 secs

     total energy              =     -16.97896195 Ry
     Harris-Foulkes estimate   =     -16.97890942 Ry
     estimated scf accuracy    <       0.00006193 Ry

     iteration #  4     ecut=    50.00 Ry     beta=0.30
     Davidson diagonalization with overlap
     ethr =  1.55E-06,  avg # of iterations =  3.3

     total cpu time spent up to now is        6.1 secs

     total energy              =     -16.97898952 Ry
     Harris-Foulkes estimate   =     -16.97898432 Ry
     estimated scf accuracy    <       0.00002169 Ry

     iteration #  5     ecut=    50.00 Ry     beta=0.30
     Davidson diagonalization with overlap
     ethr =  5.42E-07,  avg # of iterations =  1.0

     total cpu time spent up to now is        6.9 secs

     total energy              =     -16.97899167 Ry
     Harris-Foulkes estimate   =     -16.97899002 Ry
     estimated scf accuracy    <       0.00000292 Ry

     iteration #  6     ecut=    50.00 Ry     beta=0.30
     Davidson diagonalization with overlap
     ethr =  7.29E-08,  avg # of iterations =  2.0

     total cpu time spent up to now is        7.6 secs

     total energy              =     -16.97899228 Ry
     Harris-Foulkes estimate   =     -16.97899199 Ry
     estimated scf accuracy    <       0.00000002 Ry

     iteration #  7     ecut=    50.00 Ry     beta=0.30
     Davidson diagonalization with overlap
     ethr =  5.66E-10,  avg # of iterations =  2.4

     total cpu time spent up to now is        8.5 secs

     End of self-consistent calculation

          k = 0.0000 0.0000 0.0000 (  1639 PWs)   bands (ev):

    -5.1495   6.1111   6.1111   6.1111   9.3507   9.8739   9.8739   9.8739
    15.1405  15.1405

          k =-0.2000 0.2000-0.2000 (  1606 PWs)   bands (ev):

    -4.6769   3.4885   5.6915   5.6915   9.2844  10.5747  10.5747  12.4043
    14.8160  14.8160

          k =-0.4000 0.4000-0.4000 (  1616 PWs)   bands (ev):

    -3.4934   0.5835   5.2146   5.2146   8.7785  10.9856  10.9856  16.1073
    16.4146  16.4146

          k = 0.0000 0.4000 0.0000 (  1607 PWs)   bands (ev):

    -4.5106   3.5162   5.0559   5.0559   9.2278  11.1157  11.7705  11.7705
    14.1297  15.8958

          k =-0.2000 0.6000-0.2000 (  1619 PWs)   bands (ev):

    -3.4876   1.1572   4.1961   4.6078   9.5484  11.4287  12.3059  12.5856
    16.9971  17.3671

          k = 0.6000-0.2000 0.6000 (  1596 PWs)   bands (ev):

    -2.7667   0.0066   3.5697   4.7918   9.7346  11.8194  12.1994  14.9792
    15.5766  15.8999

          k = 0.4000 0.0000 0.4000 (  1610 PWs)   bands (ev):

    -3.9272   1.9120   4.0190   5.4420  10.0824  11.2407  11.4602  13.0338
    14.0713  17.4977

          k = 0.0000 0.8000 0.0000 (  1624 PWs)   bands (ev):

    -2.6659   0.1479   4.0383   4.0383   8.7297   9.5552  15.2282  15.2282
    17.6170  18.1457

          k = 0.8000 0.0000 0.8000 (  1622 PWs)   bands (ev):

    -1.6516  -0.9866   3.1892   4.1233   9.1862  10.9095  15.0559  15.5139
    15.6343  16.4442

          k = 0.6000-0.2000 1.0000 (  1616 PWs)   bands (ev):

    -2.3243  -0.2111   3.2496   3.9742  10.9717  11.5030  11.8083  14.9113
    15.4061  17.1575

     the Fermi energy is     3.1016 ev

!    total energy              =     -16.97899234 Ry
     Harris-Foulkes estimate   =     -16.97899232 Ry
     estimated scf accuracy    <          1.5E-09 Ry

     The total energy is the sum of the following terms:

     one-electron contribution =       1.45873829 Ry
     hartree contribution      =       0.43140203 Ry
     xc contribution           =      -2.06567752 Ry
     ewald contribution        =     -16.79708774 Ry
     smearing contrib. (-TS)   =      -0.00636741 Ry

     convergence has been achieved in   7 iterations

     Forces acting on atoms (Ry/au):

     atom    1 type  1   force =    -0.00000000    0.00000000    0.00000000
     atom    2 type  1   force =    -0.00000000   -0.00000000   -0.00000000

     Total force =     0.000000     Total SCF correction =     0.000000


     entering subroutine stress ...

          total   stress  (Ry/bohr**3)                   (kbar)     P=-1409.33
  -0.00958046  -0.00000000  -0.00000000      -1409.33     -0.00     -0.00
  -0.00000000  -0.00958046   0.00000000         -0.00  -1409.33      0.00
  -0.00000000   0.00000000  -0.00958046         -0.00      0.00  -1409.33


     Writing output data file Si.save

     init_run     :      1.26s CPU      1.31s WALL (       1 calls)
     electrons    :      6.60s CPU      7.11s WALL (       1 calls)
     forces       :      0.06s CPU      0.06s WALL (       1 calls)
     stress       :      0.53s CPU      0.56s WALL (       1 calls)

     Called by init_run:
     wfcinit      :      1.08s CPU      1.11s WALL (       1 calls)
     potinit      :      0.04s CPU      0.05s WALL (       1 calls)

     Called by electrons:
     c_bands      :      5.11s CPU      5.45s WALL (       7 calls)
     sum_band     :      1.20s CPU      1.36s WALL (       7 calls)
     v_of_rho     :      0.29s CPU      0.31s WALL (       8 calls)
     mix_rho      :      0.02s CPU      0.02s WALL (       7 calls)

     Called by c_bands:
     init_us_2    :      0.27s CPU      0.30s WALL (     170 calls)
     cegterg      :      4.92s CPU      5.23s WALL (      70 calls)

     Called by *egterg:
     h_psi        :      5.39s CPU      5.68s WALL (     208 calls)
     g_psi        :      0.01s CPU      0.01s WALL (     128 calls)
     cdiaghg      :      0.05s CPU      0.06s WALL (     198 calls)

     Called by h_psi:
     add_vuspsi   :      0.15s CPU      0.16s WALL (     208 calls)

     General routines
     calbec       :      0.18s CPU      0.18s WALL (     228 calls)
     fft          :      0.12s CPU      0.13s WALL (      95 calls)
     fftw         :      5.65s CPU      6.03s WALL (    4548 calls)
     davcio       :      0.00s CPU      0.00s WALL (      10 calls)

     Parallel routines
     fft_scatter  :      0.15s CPU      0.16s WALL (    4643 calls)

     PWSCF        :     8.57s CPU         9.16s WALL


   This run was terminated on:  20:52:24  13Feb2023            

=------------------------------------------------------------------------------=
   JOB DONE.
=------------------------------------------------------------------------------=
