
     Program PWSCF v.5.1 starts on 13Feb2023 at 22:44:27 

     This program is part of the open-source Quantum ESPRESSO suite
     for quantum simulation of materials; please cite
         "P. Giannozzi et al., J. Phys.:Condens. Matter 21 395502 (2009);
          URL http://www.quantum-espresso.org", 
     in publications or presentations arising from this work. More details at
     http://www.quantum-espresso.org/quote

     Parallel version (MPI), running on     1 processors
     Waiting for input...
     Reading input from standard input

     Current dimensions of program PWSCF are:
     Max number of different atomic species (ntypx) = 10
     Max number of k-points (npk) =  40000
     Max angular momentum in pseudopotentials (lmaxx) =  3

     Atomic positions and unit cell read from directory:
     ./out/Si.save/

               file Si.pbe-mt_fhi.UPF: wavefunction(s)  4f renormalized

     Subspace diagonalization in iterative solution of the eigenvalue problem:
     a serial algorithm will be used


     G-vector sticks info
     --------------------
     sticks:   dense  smooth     PW     G-vecs:    dense   smooth      PW
     Sum         733     733    211                12939    12939    2109



     bravais-lattice index     =            2
     lattice parameter (alat)  =      10.2623  a.u.
     unit-cell volume          =     270.1967 (a.u.)^3
     number of atoms/cell      =            2
     number of atomic types    =            1
     number of electrons       =        78.00
     number of Kohn-Sham states=           40
     kinetic-energy cutoff     =      50.0000  Ry
     charge density cutoff     =     200.0000  Ry
     Exchange-correlation      = PBE ( 1  4  3  4 0)

     celldm(1)=  10.262347  celldm(2)=   0.000000  celldm(3)=   0.000000
     celldm(4)=   0.000000  celldm(5)=   0.000000  celldm(6)=   0.000000

     crystal axes: (cart. coord. in units of alat)
               a(1) = (  -0.500000   0.000000   0.500000 )  
               a(2) = (   0.000000   0.500000   0.500000 )  
               a(3) = (  -0.500000   0.500000   0.000000 )  

     reciprocal axes: (cart. coord. in units 2 pi/alat)
               b(1) = ( -1.000000 -1.000000  1.000000 )  
               b(2) = (  1.000000  1.000000  1.000000 )  
               b(3) = ( -1.000000  1.000000 -1.000000 )  


     PseudoPot. # 1 for Si read from file:
     /home/acedemo/psudo/Si.pbe-mt_fhi.UPF
     MD5 check sum: 259057c2adf9952f9ced37ae3d9e311d
     Pseudo is Norm-conserving, Zval =  4.0
     Generated using FHI98PP, converted with fhi2upf.x v.5.0.2
     Using radial grid of  495 points,  3 beta functions with: 
                l(1) =   0
                l(2) =   1
                l(3) =   3

     atomic species   valence    mass     pseudopotential
        Si             4.00    28.08550     Si( 1.00)

     48 Sym. Ops., with inversion, found (24 have fractional translation)



   Cartesian axes

     site n.     atom                  positions (alat units)
         1           Si  tau(   1) = (   0.0000000   0.0000000   0.0000000  )
         2           Si  tau(   2) = (   0.2500000   0.2500000   0.2500000  )

     number of k points=    51  Marzari-Vanderbilt smearing, width (Ry)=  0.0500
                       cart. coord. in units 2pi/alat
        k(    1) = (   0.5000000   0.5000000   0.5000000), wk =   0.0000000
        k(    2) = (   0.4500000   0.4500000   0.4500000), wk =   0.0014779
        k(    3) = (   0.4000000   0.4000000   0.4000000), wk =   0.0029558
        k(    4) = (   0.3500000   0.3500000   0.3500000), wk =   0.0044337
        k(    5) = (   0.3000000   0.3000000   0.3000000), wk =   0.0059116
        k(    6) = (   0.2500000   0.2500000   0.2500000), wk =   0.0073895
        k(    7) = (   0.2000000   0.2000000   0.2000000), wk =   0.0088674
        k(    8) = (   0.1500000   0.1500000   0.1500000), wk =   0.0103453
        k(    9) = (   0.1000000   0.1000000   0.1000000), wk =   0.0118232
        k(   10) = (   0.0500000   0.0500000   0.0500000), wk =   0.0133011
        k(   11) = (   0.0000000   0.0000000   0.0000000), wk =   0.0147790
        k(   12) = (   0.0000000   0.1000000   0.0000000), wk =   0.0168691
        k(   13) = (   0.0000000   0.2000000   0.0000000), wk =   0.0189591
        k(   14) = (   0.0000000   0.3000000   0.0000000), wk =   0.0210492
        k(   15) = (   0.0000000   0.4000000   0.0000000), wk =   0.0231392
        k(   16) = (   0.0000000   0.5000000   0.0000000), wk =   0.0252293
        k(   17) = (   0.0000000   0.6000000   0.0000000), wk =   0.0273194
        k(   18) = (   0.0000000   0.7000000   0.0000000), wk =   0.0294094
        k(   19) = (   0.0000000   0.8000000   0.0000000), wk =   0.0314995
        k(   20) = (   0.0000000   0.9000000   0.0000000), wk =   0.0335896
        k(   21) = (   0.0000000   1.0000000   0.0000000), wk =   0.0356796
        k(   22) = (   0.0000000   0.9750000   0.0750000), wk =   0.0370621
        k(   23) = (   0.0000000   0.9500000   0.1500000), wk =   0.0384445
        k(   24) = (  -0.0000000   0.9250000   0.2250000), wk =   0.0398270
        k(   25) = (  -0.0000000   0.9000000   0.3000000), wk =   0.0412094
        k(   26) = (   0.0000000   0.8750000   0.3750000), wk =   0.0425919
        k(   27) = (   0.0000000   0.8500000   0.4500000), wk =   0.0439743
        k(   28) = (   0.0000000   0.8250000   0.5250000), wk =   0.0453568
        k(   29) = (  -0.0000000   0.8000000   0.6000000), wk =   0.0467392
        k(   30) = (  -0.0000000   0.7750000   0.6750000), wk =   0.0481217
        k(   31) = (   0.0000000   0.7500000   0.7500000), wk =   0.0495041
        k(   32) = (   0.0000000   0.7250000   0.7750000), wk =   0.0500266
        k(   33) = (   0.0000000   0.7000000   0.8000000), wk =   0.0505491
        k(   34) = (   0.0000000   0.6750000   0.8250000), wk =   0.0510717
        k(   35) = (   0.0000000   0.6500000   0.8500000), wk =   0.0515942
        k(   36) = (   0.0000000   0.6250000   0.8750000), wk =   0.0521167
        k(   37) = (   0.0000000   0.6000000   0.9000000), wk =   0.0526392
        k(   38) = (   0.0000000   0.5750000   0.9250000), wk =   0.0531617
        k(   39) = (   0.0000000   0.5500000   0.9500000), wk =   0.0536842
        k(   40) = (   0.0000000   0.5250000   0.9750000), wk =   0.0542067
        k(   41) = (   0.0000000   0.5000000   1.0000000), wk =   0.0547293
        k(   42) = (   0.0000000   0.4500000   0.9000000), wk =   0.0574942
        k(   43) = (  -0.0000000   0.4000000   0.8000000), wk =   0.0602591
        k(   44) = (  -0.0000000   0.3500000   0.7000000), wk =   0.0630239
        k(   45) = (  -0.0000000   0.3000000   0.6000000), wk =   0.0657888
        k(   46) = (   0.0000000   0.2500000   0.5000000), wk =   0.0685537
        k(   47) = (   0.0000000   0.2000000   0.4000000), wk =   0.0713186
        k(   48) = (   0.0000000   0.1500000   0.3000000), wk =   0.0740835
        k(   49) = (  -0.0000000   0.1000000   0.2000000), wk =   0.0768484
        k(   50) = (  -0.0000000   0.0500000   0.1000000), wk =   0.0796133
        k(   51) = (   0.0000000   0.0000000   0.0000000), wk =   0.0823782

     Dense  grid:    12939 G-vectors     FFT dimensions: (  36,  36,  36)

     Largest allocated arrays     est. size (Mb)     dimensions
        Kohn-Sham Wavefunctions         1.00 Mb     (    1639,   40)
        NL pseudopotentials             0.55 Mb     (    1639,   22)
        Each V/rho on FFT grid          0.71 Mb     (   46656)
        Each G-vector array             0.10 Mb     (   12939)
        G-vector shells                 0.00 Mb     (     180)
     Largest temporary arrays     est. size (Mb)     dimensions
        Auxiliary wavefunctions         4.00 Mb     (    1639,  160)
        Each subspace H/S matrix        0.39 Mb     (     160,  160)
        Each <psi_i|beta_j> matrix      0.01 Mb     (      22,   40)

     The potential is recalculated from file :
     ./out/Si.save/charge-density.dat

     Starting wfc are   32 randomized atomic wfcs +    8 random wfc

     Band Structure Calculation
     Davidson diagonalization with overlap

     ethr =  2.05E-12,  avg # of iterations = 27.3

     total cpu time spent up to now is      132.9 secs

     End of band structure calculation

          k = 0.5000 0.5000 0.5000 (  1622 PWs)   bands (ev):

   -10.9359 -10.7395  -2.1899  -2.1899  -0.9903  -0.9903   0.2546   0.2554
     7.7608   7.7608   8.4895   8.4895   8.8860  11.6056  17.2726  17.4463
    17.4463  18.3235  18.7160  18.7160  19.7262  20.9322  24.7467  24.7467
    27.4141  27.4141  28.0313  28.0313  28.4388  28.7643  28.7643  30.1686
    30.8344  31.4295  36.2313  36.2313  38.5156  38.7396  38.7396  39.5777

          k = 0.4500 0.4500 0.4500 (  1610 PWs)   bands (ev):

   -11.5497 -10.0540  -2.2009  -2.2009  -0.9090  -0.9090   0.0589   0.5146
     6.9070   6.9070   8.5188   9.4161   9.4161  12.0074  16.0555  16.3142
    16.3142  18.0498  19.9058  19.9058  20.1768  22.0776  24.6646  24.6646
    27.1021  27.1021  28.1866  28.3848  28.3848  28.9412  28.9412  30.4701
    30.4971  31.8551  36.2431  36.2431  38.4731  38.7815  38.7815  39.6663

          k = 0.4000 0.4000 0.4000 (  1616 PWs)   bands (ev):

   -12.1793  -9.2092  -2.2171  -2.2171  -0.6827  -0.6827  -0.0721   0.8345
     5.8443   5.8443   7.7557  10.6967  10.6967  12.7797  14.4321  14.7872
    14.7872  16.7380  21.5846  21.5846  21.6959  23.8817  24.4772  24.4772
    26.6519  26.6519  27.6972  28.9740  28.9740  29.4170  29.4170  30.0112
    31.2153  32.5086  36.2790  36.2790  38.3663  38.8934  38.8934  39.9001

          k = 0.3500 0.3500 0.3500 (  1610 PWs)   bands (ev):

   -12.7379  -8.2927  -2.2088  -2.2088  -0.3435  -0.3435  -0.1378   1.2087
     4.8425   4.8425   6.9087  12.0529  12.0529  12.1951  13.3057  13.3057
    14.3144  15.3892  23.1110  23.1110  23.2666  24.4530  24.4530  25.7592
    26.2545  26.2545  27.1920  29.6519  29.6519  29.7466  30.0786  30.0786
    32.1019  33.1644  36.3359  36.3359  38.2077  38.8738  38.8738  39.7295

          k = 0.3000 0.3000 0.3000 (  1615 PWs)   bands (ev):

   -13.2234  -7.3080  -2.1551  -2.1551  -0.1398   0.0805   0.0805   1.6264
     3.9216   3.9216   6.0784  10.5168  11.8349  11.8349  13.5336  13.5336
    14.0760  15.4356  23.4795  23.4795  24.7201  25.3724  25.3724  26.1787
    26.1787  26.7307  27.3154  30.0797  30.3994  30.3994  30.8404  30.8404
    33.0971  33.7068  36.3326  36.3326  37.2647  37.2647  37.9808  39.5138

          k = 0.2500 0.2500 0.2500 (  1618 PWs)   bands (ev):

   -13.6349  -6.2582  -2.0449  -2.0449  -0.0818   0.5560   0.5560   2.0656
     3.1064   3.1064   5.3054   8.8272  10.4807  10.4807  12.8656  15.0343
    15.0343  16.6584  23.2831  23.2831  25.3971  25.3971  25.7896  26.3313
    27.6845  27.6845  28.2262  31.1609  31.1609  31.5352  31.6318  31.6318
    33.9230  34.1828  35.0087  35.0087  36.7244  36.7244  37.8025  39.7588

          k = 0.2000 0.2000 0.2000 (  1606 PWs)   bands (ev):

   -13.9721  -5.1478  -1.8726  -1.8726   0.0270   0.9792   0.9792   2.4756
     2.4955   2.4955   4.6208   7.2351   9.1923   9.1923  11.7429  16.6018
    16.6018  17.9192  23.0589  23.0589  25.1654  25.1654  26.0006  26.1087
    29.2675  29.5142  29.5142  31.5561  31.5561  32.3240  32.3240  33.5748
    33.6677  33.7243  33.7243  35.3522  36.8967  36.8967  38.0058  39.7839

          k = 0.1500 0.1500 0.1500 (  1600 PWs)   bands (ev):

   -14.2347  -3.9851  -1.6358  -1.6358   0.1650   0.9752   0.9752   2.4598
     2.4598   2.7313   4.0460   5.8739   7.9791   7.9791  10.7339  18.2145
    18.2145  19.1721  22.8785  22.8785  24.9663  24.9663  25.7416  25.8799
    29.7444  29.7444  30.5264  31.9682  31.9682  33.0782  33.0782  33.0962
    34.0799  34.0799  35.7865  36.6022  37.1679  37.1679  38.6252  39.8888

          k = 0.1000 0.1000 0.1000 (  1606 PWs)   bands (ev):

   -14.4224  -2.7873  -1.3348  -1.3348   0.2708   0.5231   0.5231   2.6673
     3.0160   3.0160   3.4028   5.1314   6.8476   6.8476   9.8832  19.8266
    19.8266  20.3583  22.7814  22.7814  24.8152  24.8152  25.4043  25.5558
    28.0449  28.0449  31.3097  33.0771  33.5021  33.5021  34.0599  34.0599
    34.9533  34.9533  37.5431  37.5431  37.6464  37.9310  39.3284  39.9281

          k = 0.0500 0.0500 0.0500 (  1630 PWs)   bands (ev):

   -14.5351  -1.5986  -0.9765  -0.9765   0.0095   0.0095   0.1571   2.4072
     2.6372   3.7636   3.7636   5.0886   5.8192   5.8192   9.2770  21.2391
    21.2391  21.3486  22.8913  22.8913  24.6970  24.6970  24.8504  25.4441
    26.3327  26.3327  31.2297  33.9214  34.1991  34.1991  35.3460  35.3460
    35.8846  35.8846  38.0349  38.0349  38.4070  39.3371  39.7611  39.8125

          k = 0.0000 0.0000 0.0000 (  1639 PWs)   bands (ev):

   -14.5726  -0.6770  -0.6770  -0.6770  -0.3472  -0.3472  -0.3472   2.2569
     2.3337   4.3409   4.3409   5.1537   5.1537   5.1537   9.0482  21.7967
    21.7967  21.7967  23.2963  23.2963  24.5504  24.5504  24.5504  25.4068
    25.4068  25.4068  31.1223  34.4184  34.4184  34.4184  35.8294  35.8294
    36.3818  36.3818  38.2967  38.2967  38.2967  40.1688  40.1688  40.1688

          k = 0.0000 0.1000 0.0000 (  1627 PWs)   bands (ev):

   -14.5226  -1.4140  -1.4140  -0.9139  -0.6171   0.4706   0.4706   2.3382
     2.6931   3.3250   4.3913   5.2165   5.2165   6.2193   9.3817  20.9840
    20.9840  21.8431  22.1724  22.7707  24.8282  24.8282  24.8609  26.0651
    26.0651  26.6018  31.2652  33.8051  33.8051  34.3495  34.8526  35.3675
    35.6772  36.2501  38.0629  38.0629  38.1277  38.9848  38.9848  39.6380

          k = 0.0000 0.2000 0.0000 (  1599 PWs)   bands (ev):

   -14.3723  -2.2073  -2.2073  -1.4454  -1.1852   1.2199   1.5009   1.5009
     3.5290   3.6007   4.5424   5.4100   5.4100   7.1869  10.4698  19.5182
    19.5182  20.4707  21.7694  21.9823  25.0448  25.0448  25.2464  27.6721
    27.6721  28.5007  31.4541  32.2220  32.2220  32.8930  33.6314  34.2950
    35.2962  35.9522  36.9678  36.9678  37.7091  38.2774  38.2774  39.4573

          k = 0.0000 0.3000 0.0000 (  1607 PWs)   bands (ev):

   -14.1221  -2.9151  -2.9151  -2.0682  -1.8021  -0.3081   2.5832   2.5832
     4.5631   4.5895   4.7943   5.7527   5.7527   7.8010  12.1768  17.9821
    17.9821  18.7777  20.6314  22.2138  25.2796  25.2796  25.3915  29.2879
    29.2879  30.4151  30.4151  30.4436  30.6991  30.8910  32.3850  34.6151
    34.8165  35.6972  35.9156  35.9156  37.2065  37.6279  37.6279  38.9928

          k = 0.0000 0.4000 0.0000 (  1607 PWs)   bands (ev):

   -13.7722  -3.5316  -3.5316  -2.7583  -2.3791  -1.7158   3.6706   3.6706
     5.1468   5.6912   5.7805   6.2848   6.2848   8.3227  14.2026  16.4867
    16.4867  17.1556  19.4555  22.5365  25.0796  25.5835  25.5835  27.6663
    27.6663  28.4726  29.7682  31.6428  31.7870  31.7870  32.1049  34.3275
    34.9676  34.9676  35.3019  35.8363  36.7163  37.0312  37.0312  38.1592

          k = 0.0000 0.5000 0.0000 (  1612 PWs)   bands (ev):

   -13.3229  -4.0550  -4.0550  -3.7385  -2.8854  -2.7024   4.6956   4.6956
     5.6000   6.8990   7.0607   7.0701   7.0701   8.8981  15.0631  15.0631
    15.6198  16.3983  18.2963  22.9456  24.0777  25.3402  25.3402  26.0077
    26.0077  26.2875  29.1418  30.8842  32.9293  33.6801  33.6801  33.8761
    34.1778  34.1778  35.7550  36.2814  36.5204  36.5204  36.9514  37.4092

          k = 0.0000 0.6000 0.0000 (  1620 PWs)   bands (ev):

   -12.7747  -4.9953  -4.4842  -4.4842  -3.3082  -3.2530   5.6122   5.6122
     6.1537   8.1027   8.1484   8.1484   8.3945   9.6259  13.7256  13.7256
    14.1764  17.1998  18.7002  22.5399  23.0859  23.0859  23.3619  24.2609
    26.4568  26.4568  28.9575  30.1991  33.0034  33.0034  33.0315  33.4864
    35.6080  35.6080  35.6113  35.9110  36.1306  36.1306  36.9119  37.2015

          k = 0.0000 0.7000 0.0000 (  1632 PWs)   bands (ev):

   -12.1282  -6.2613  -4.8184  -4.8184  -3.6412  -3.6212   6.4530   6.4530
     6.8078   9.1692   9.4666   9.4666   9.7213  10.6314  12.4964  12.4964
    12.8284  16.2292  20.7924  20.8774  20.8774  21.0545  22.0294  24.1940
    27.0049  27.0049  28.5365  30.0199  32.0316  32.0316  32.9217  33.1707
    35.0537  35.4553  35.6960  35.6960  35.9228  35.9228  35.9490  38.7326

          k = 0.0000 0.8000 0.0000 (  1624 PWs)   bands (ev):

   -11.3843  -7.4622  -5.0574  -5.0574  -3.8809  -3.8734   7.2847   7.2847
     7.5622  10.0444  10.6745  10.6745  10.8868  11.5775  11.6540  11.6540
    11.9407  15.5203  18.7572  18.7572  19.0317  20.1349  23.3217  25.0393
    27.6268  27.6268  27.7429  30.2793  31.0813  31.0813  32.7977  32.9352
    34.1172  34.5280  35.4762  35.4762  35.6705  35.6827  35.6827  37.6319

          k = 0.0000 0.9000 0.0000 (  1608 PWs)   bands (ev):

   -10.5440  -8.5802  -5.2009  -5.2009  -4.0253  -4.0228   8.1519   8.1519
     8.4167  10.0540  10.0540  10.4248  10.7943  11.5234  12.8462  12.8462
    13.4147  15.3030  16.7616  16.7616  17.4710  18.4162  24.9504  26.6228
    26.8603  28.2924  28.2924  30.2084  30.2095  30.2095  32.7204  32.7825
    32.9837  33.6003  35.3360  35.3360  35.5235  35.5235  35.6646  36.4035

          k = 0.0000 1.0000 0.0000 (  1604 PWs)   bands (ev):

    -9.6086  -9.6086  -5.2487  -5.2487  -4.0729  -4.0729   9.0069   9.0069
     9.1521   9.1521   9.3711   9.3711  11.3804  11.3804  14.1349  14.1349
    14.8169  14.8169  15.3336  15.3336  17.1563  17.1563  25.9575  25.9575
    28.7436  28.7436  28.7459  28.7459  29.6859  29.6859  32.7121  32.7121
    32.9062  32.9062  35.2888  35.2888  35.4698  35.4698  35.8658  35.8658

          k = 0.0000 0.9750 0.0750 (  1618 PWs)   bands (ev):

    -9.8238  -9.3328  -5.5680  -5.5677  -3.6956  -3.6954   7.8607   8.3325
     8.8654   9.3312   9.8026  10.2671  11.5624  11.8110  13.5455  13.7190
    14.9907  14.9994  15.4075  15.8023  17.2371  17.5952  25.3003  25.7391
    27.9938  28.4022  28.8515  29.0826  29.9236  30.3506  31.8966  31.9119
    32.9819  33.2185  34.8146  34.8837  35.6957  35.7113  37.1981  37.2463

          k = 0.0000 0.9500 0.1500 (  1622 PWs)   bands (ev):

    -9.9779  -8.9970  -6.1154  -6.1137  -2.9749  -2.9741   6.4350   7.3718
     8.6821   9.6109   9.9864  10.7535  11.8788  12.6274  13.0280  13.2523
    14.9443  15.3527  15.5760  16.6266  17.8573  18.4121  24.1514  24.9921
    27.2193  27.3628  28.5684  29.4770  30.3391  30.5340  30.6199  31.6240
    33.0748  33.2965  34.9452  35.1507  36.4349  36.5001  39.1109  39.1240

          k =-0.0000 0.9250 0.2250 (  1622 PWs)   bands (ev):

   -10.0709  -8.6030  -6.6601  -6.6549  -2.1442  -2.1402   5.0085   6.4056
     8.5264   9.8387  10.0937  10.8674  11.3139  12.5267  13.5837  13.7802
    15.1787  15.5537  16.0559  17.4022  18.9144  19.4169  22.8512  24.0890
    26.1805  26.5080  27.7649  28.3679  28.9050  30.5615  31.4746  32.7983
    33.0215  33.2186  35.5988  36.3207  37.2985  37.4250  40.8783  41.1074

          k =-0.0000 0.9000 0.3000 (  1623 PWs)   bands (ev):

   -10.1027  -8.1574  -7.1621  -7.1453  -1.2512  -1.2365   3.6200   5.4724
     8.3705   9.8672  10.1189  10.6072  10.8203  12.5329  14.1036  14.2728
    15.8499  15.8856  16.7636  18.3039  20.1876  20.4729  21.5247  23.1512
    24.9912  25.8176  26.4379  26.8128  27.9982  30.8652  31.8968  33.0323
    33.2758  34.4787  36.4190  37.6431  38.2521  38.4310  39.9876  41.5012

          k = 0.0000 0.8750 0.3750 (  1614 PWs)   bands (ev):

   -10.0734  -7.7774  -7.6105  -7.4582  -0.3396  -0.2795   2.3162   4.5907
     8.1624   9.3152  10.0606  10.1895  11.0803  12.8496  14.2052  14.7159
    16.3952  16.5819  17.7539  19.3061  20.1853  21.4650  21.4730  22.2948
    23.8875  24.6220  25.4581  25.5511  27.4284  30.8334  31.6748  33.5175
    34.2564  35.5715  36.9723  38.8329  38.9356  39.1272  39.8255  40.9189

          k = 0.0000 0.8500 0.4500 (  1612 PWs)   bands (ev):

    -9.9832  -8.0397  -8.0014  -7.0146   0.2390   0.7088   1.4513   3.7832
     7.8353   8.5356   9.8828  10.1561  11.5481  13.3122  14.2777  15.0105
    16.9668  17.2007  18.9017  18.9990  19.9972  21.0563  21.9700  22.8250
    23.2166  23.3304  24.6733  25.3474  27.0637  30.5909  31.3541  34.0272
    35.3807  35.6703  37.4457  38.0137  39.3706  39.8445  40.0135  40.9992

          k = 0.0000 0.8250 0.5250 (  1611 PWs)   bands (ev):

    -9.8331  -8.3616  -8.3320  -6.3985  -0.5724   1.6300   2.0839   3.1456
     7.3752   7.7792   9.7801  10.3081  12.0796  13.8449  14.3641  15.2757
    17.4530  17.6614  17.7605  19.7272  20.1074  20.3752  21.1180  22.3397
    22.6780  24.2880  25.3811  25.5278  27.0659  30.2572  31.0572  33.6640
    35.7775  36.2806  36.5394  36.9732  39.1767  40.5970  40.9382  41.8031

          k =-0.0000 0.8000 0.6000 (  1614 PWs)   bands (ev):

    -9.6252  -8.6319  -8.5993  -5.7290  -1.7069   1.8373   3.1480   3.3159
     6.8462   7.0817   9.8530  10.5112  12.6412  14.3172  14.5416  15.5432
    16.4588  17.8052  18.1263  18.4661  19.7186  19.7810  21.7308  21.7769
    22.4843  25.4143  25.6070  27.0665  27.7298  29.8405  30.8014  32.6883
    34.5983  34.8438  37.0096  37.3297  39.9510  40.8498  41.3610  42.0825

          k =-0.0000 0.7750 0.6750 (  1621 PWs)   bands (ev):

    -9.3683  -8.8440  -8.7941  -5.0484  -2.7823   1.3191   4.2610   4.2707
     6.3394   6.4860  10.0553  10.7609  13.1737  14.3940  15.0011  15.2969
    15.9059  17.1593  17.5689  18.0028  19.0790  19.7376  21.3276  21.8547
    23.5660  25.5395  26.6305  28.7723  28.9320  29.3064  30.5569  31.8531
    33.0008  33.0773  37.6997  37.9763  40.2598  41.0186  41.0463  42.1587

          k = 0.0000 0.7500 0.7500 (  1624 PWs)   bands (ev):

    -9.1372  -8.9963  -8.8416  -4.6557  -3.4678   0.7368   5.0822   5.1008
     6.1486   6.2814  10.3615  11.0440  13.3502  14.1821  14.6643  15.0573
    15.8757  16.3751  17.2107  17.2987  19.4795  19.6151  21.3696  21.5543
    24.8787  25.7060  27.3533  28.8970  29.4544  30.2451  30.4157  31.4122
    31.9062  32.1471  37.5295  38.6069  39.6201  40.2268  41.2541  41.9158

          k = 0.0000 0.7250 0.7750 (  1616 PWs)   bands (ev):

    -9.1312  -8.9903  -8.8354  -4.8219  -3.2909   0.7412   4.9283   4.9431
     6.3082   6.4500  10.3719  11.0446  13.2237  14.1124  14.7964  14.9605
    15.7509  16.4806  17.3564  17.3686  19.4836  19.6262  21.3670  21.5511
    24.6966  25.8894  27.1566  29.0214  29.1823  29.9387  30.3485  31.5343
    32.3440  32.3601  37.5223  38.2683  39.6310  40.5055  41.1982  41.9135

          k = 0.0000 0.7000 0.8000 (  1621 PWs)   bands (ev):

    -9.1129  -8.9722  -8.8169  -5.1740  -2.9068   0.7543   4.6034   4.6065
     6.6497   6.8191  10.4034  11.0457  12.9388  13.9220  14.7295  15.0568
    15.5182  16.7346  17.5622  17.6931  19.4963  19.6602  21.3575  21.5405
    24.3447  26.2411  26.7158  28.6390  28.9747  29.3945  30.4816  31.7964
    32.8431  33.2070  37.5009  37.6083  39.6146  40.9639  41.0567  41.9824

          k = 0.0000 0.6750 0.8250 (  1620 PWs)   bands (ev):

    -9.0825  -8.9422  -8.7861  -5.5784  -2.4493   0.7755   4.2190   4.2313
     7.0480   7.2603  10.4569  11.0442  12.6043  13.6496  14.4409  14.9791
    15.6497  17.0529  17.8455  18.1076  19.5189  19.7191  21.3352  21.5193
    23.9583  26.1998  26.6019  28.0547  28.1274  29.5650  30.5869  32.2002
    33.4945  34.1074  36.9012  37.4670  39.5638  40.8744  41.1559  42.3123

          k = 0.0000 0.6500 0.8500 (  1616 PWs)   bands (ev):

    -9.0400  -8.9003  -8.7429  -5.9945  -1.9596   0.8039   3.8214   3.8505
     7.4621   7.7319  10.5336  11.0340  12.2685  13.3302  14.1320  14.6448
    16.0662  17.3920  18.1849  18.5497  19.5563  19.8061  21.2900  21.4813
    23.5699  25.6875  26.7940  27.2170  27.6441  29.7253  30.6891  32.7128
    34.2025  34.8918  36.3277  37.4246  39.4723  40.6823  41.1078  42.3223

          k = 0.0000 0.6250 0.8750 (  1616 PWs)   bands (ev):

    -8.9854  -8.8466  -8.6874  -6.4093  -1.4520   0.8377   3.4279   3.4752
     7.8746   8.2178  10.6352  11.0024  11.9600  12.9872  13.8208  14.2904
    16.5334  17.7305  18.5521  18.9789  19.6298  19.9253  21.2086  21.4167
    23.1933  25.2264  26.3040  26.4820  27.7644  29.8368  30.8049  33.2687
    34.9075  34.9658  36.5079  37.3848  39.3303  40.4978  41.0038  42.1268

          k = 0.0000 0.6000 0.9000 (  1613 PWs)   bands (ev):

    -8.9186  -8.7816  -8.6196  -6.8173  -0.9338   0.8735   3.0461   3.1134
     8.2736   8.7051  10.7617  10.9295  11.7091  12.6351  13.5205  13.9468
    17.0234  18.0560  18.9199  19.2963  19.8239  20.0748  21.0857  21.3117
    22.8420  24.8547  25.3971  25.9759  28.1218  29.9084  30.9444  33.6733
    34.5989  35.5473  37.3209  37.3756  39.1409  40.3325  40.9117  41.9210

          k = 0.0000 0.5750 0.9250 (  1615 PWs)   bands (ev):

    -8.8397  -8.7059  -8.5395  -7.2156  -0.4128   0.9055   2.6836   2.7739
     8.6476   9.1702  10.8102  10.9086  11.5388  12.2832  13.2468  13.6270
    17.5280  18.3599  19.2602  19.4209  20.1965  20.2052  20.9723  21.1581
    22.5325  24.4984  24.6037  25.4940  28.5116  29.9411  31.1151  33.3894
    34.8450  36.0242  37.4577  38.1425  38.9835  40.1985  40.8485  41.7335

          k = 0.0000 0.5500 0.9500 (  1615 PWs)   bands (ev):

    -8.7488  -8.6218  -8.4471  -7.6005   0.0963   0.9226   2.3551   2.4690
     8.9863   9.5425  10.7226  11.0583  11.4328  11.9391  13.0260  13.3431
    18.0401  18.6338  19.4464  19.5400  20.1500  20.5442  21.0389  21.0592
    22.2796  23.6153  24.4806  25.0879  28.8938  29.9217  31.3239  32.8133
    35.3808  36.2425  37.6748  38.3586  39.3665  40.1136  40.8232  41.5769

          k = 0.0000 0.5250 0.9750 (  1615 PWs)   bands (ev):

    -8.6458  -8.5385  -8.3424  -7.9623   0.5515   0.9049   2.1025   2.2195
     9.2806   9.6625  10.8548  11.1667  11.3491  11.6122  12.9049  13.1096
    18.5437  18.8608  19.4134  19.6055  20.0408  20.4574  21.3151  21.3836
    22.0935  22.7525  24.4805  24.7802  29.2532  29.8175  31.5760  32.2762
    35.8693  36.2495  37.9131  38.1513  39.9789  40.0964  40.9208  41.4336

          k = 0.0000 0.5000 1.0000 (  1628 PWs)   bands (ev):

    -8.5308  -8.5308  -8.2255  -8.2255   0.8256   0.8256   2.0528   2.0528
     9.5223   9.5223  11.1554  11.1554  11.3315  11.3315  12.9426  12.9426
    18.9227  18.9227  19.3867  19.3867  20.2101  20.2101  21.6690  21.6690
    22.0622  22.0622  24.5813  24.5813  29.5822  29.5822  31.8729  31.8729
    36.1530  36.1530  38.0214  38.0214  40.1349  40.1349  41.2304  41.2304

          k = 0.0000 0.4500 0.9000 (  1616 PWs)   bands (ev):

    -9.5565  -8.1210  -8.0586  -7.5394   0.3703   0.6311   1.6778   3.2928
     8.4355   9.3217  10.4198  10.4673  11.1028  12.8911  13.3881  14.2280
    17.5195  17.8435  19.2524  19.5176  19.8061  20.7338  21.3891  22.4291
    22.8894  23.0289  24.5064  25.2958  27.7356  30.4440  31.4013  33.4345
    35.5950  35.6954  37.5877  38.3716  39.6850  39.8361  40.4540  41.0666

          k =-0.0000 0.4000 0.8000 (  1616 PWs)   bands (ev):

   -10.5960  -7.6774  -7.6411  -6.6494  -0.0411   0.1592   1.4852   4.9725
     7.3202   7.9711   9.3311   9.6092  11.9222  13.4852  15.1955  15.4227
    16.0767  16.3443  17.7289  19.2852  19.9441  22.1625  22.5928  22.8828
    23.9818  24.0636  24.8521  25.4103  27.3403  30.9206  31.5627  33.9090
    34.3001  36.2521  36.9336  38.2563  38.9061  39.5046  39.6450  40.5207

          k =-0.0000 0.3500 0.7000 (  1618 PWs)   bands (ev):

   -11.5215  -7.1274  -7.0990  -5.6333  -0.3811  -0.2412   1.4515   5.7989
     6.6354   7.1208   8.4419   8.7192  12.9088  13.0376  13.4635  15.2068
    15.2113  17.8245  18.9979  19.3560  20.0915  21.6609  23.0438  23.7899
    24.3252  25.3351  26.0397  26.8298  28.6974  31.1509  31.6305  33.2032
    33.2208  35.9632  36.5885  37.7026  38.5937  39.2456  39.8082  39.9187

          k =-0.0000 0.3000 0.6000 (  1609 PWs)   bands (ev):

   -12.3274  -6.4638  -6.4380  -4.5070  -0.6252  -0.5365   1.5535   4.8658
     5.3997   7.2011   7.8864   9.3254  11.2588  11.4886  13.3911  14.1946
    16.0031  18.9469  19.8124  20.0533  20.3035  21.3625  23.4964  25.3249
    25.7861  26.8069  27.6233  28.4558  30.3200  30.7452  30.8259  32.9232
    33.1844  34.7292  36.2642  36.4183  37.9809  38.2691  39.4914  39.5294

          k = 0.0000 0.2500 0.5000 (  1610 PWs)   bands (ev):

   -13.0114  -5.6876  -5.6619  -3.2904  -0.7489  -0.7199   1.7686   3.8563
     4.2835   6.5082   7.1015   9.3052   9.6306  11.4393  11.8905  15.3419
    16.6999  17.1016  19.9196  20.6004  21.9212  23.9046  24.4480  26.8023
    27.3866  28.2743  28.9884  29.8305  29.9261  30.1515  32.0634  32.4571
    33.7415  34.2388  34.4970  36.0185  37.1221  37.8915  38.3359  39.4542

          k = 0.0000 0.2000 0.4000 (  1613 PWs)   bands (ev):

   -13.5725  -4.8029  -4.7757  -2.0612  -0.7906  -0.6790   2.0436   2.9071
     3.3275   5.8539   6.2851   7.5493   7.9990  10.4391  13.6526  14.4330
    16.6631  18.3247  20.2625  20.9896  23.0159  26.1919  26.5199  27.5399
    28.1089  29.0887  29.3187  30.0265  31.1539  31.3971  31.7205  31.9489
    33.9454  34.6631  34.9696  35.4131  36.2590  37.0406  37.8198  39.5525

          k = 0.0000 0.1500 0.3000 (  1607 PWs)   bands (ev):

   -14.0096  -3.8177  -3.7885  -1.2318  -0.7533  -0.0229   2.0059   2.0344
     2.8750   5.0799   5.2638   6.1569   6.8143   9.0833  12.3544  15.9794
    18.0808  19.6307  20.6932  21.4716  23.6960  26.6710  26.8992  28.0525
    29.0830  29.5847  29.9374  30.9540  31.0610  31.7783  32.1111  32.8888
    34.1943  34.6973  35.1571  36.1777  36.4997  37.5239  37.9623  39.3274

          k =-0.0000 0.1000 0.2000 (  1600 PWs)   bands (ev):

   -14.3223  -2.7482  -2.7178  -0.9388  -0.6224   1.1529   1.2274   1.4777
     3.1173   3.8928   4.2002   5.5000   6.0637   7.7640  10.6100  18.3610
    19.5622  20.9845  21.1696  22.0421  24.2352  25.8018  25.8813  27.2986
    27.7710  29.3212  31.2488  31.8441  32.4747  32.7705  33.2919  34.0901
    34.4217  35.1030  36.3379  37.0571  37.8550  38.3817  38.5336  39.3608

          k =-0.0000 0.0500 0.1000 (  1623 PWs)   bands (ev):

   -14.5100  -1.6302  -1.6053  -0.7563  -0.4446   0.4287   0.4740   2.4032
     2.7952   3.2677   4.0624   5.2333   5.4904   6.3633   9.4455  20.6286
    20.9952  21.6020  22.3145  22.7090  24.5932  24.9946  25.0403  26.0467
    26.1254  26.9871  31.2912  33.6858  33.7399  34.2813  34.7546  35.2594
    35.4658  36.0041  37.6770  38.0509  38.3423  39.0618  39.0997  39.6623

          k = 0.0000 0.0000 0.0000 (  1639 PWs)   bands (ev):

   -14.5726  -0.6770  -0.6770  -0.6770  -0.3472  -0.3472  -0.3472   2.2569
     2.3337   4.3409   4.3409   5.1537   5.1537   5.1537   9.0482  21.7967
    21.7967  21.7967  23.2963  23.2963  24.5504  24.5504  24.5504  25.4068
    25.4068  25.4068  31.1223  34.4184  34.4184  34.4184  35.8294  35.8294
    36.3818  36.3818  38.2967  38.2967  38.2967  40.1688  40.1688  40.1688

     Writing output data file Si.save

     init_run     :      0.15s CPU      0.15s WALL (       1 calls)
     electrons    :    126.67s CPU    131.41s WALL (       1 calls)

     Called by init_run:
     wfcinit      :      0.00s CPU      0.00s WALL (       1 calls)
     potinit      :      0.04s CPU      0.04s WALL (       1 calls)

     Called by electrons:
     c_bands      :    126.66s CPU    131.41s WALL (       1 calls)
     v_of_rho     :      0.03s CPU      0.03s WALL (       1 calls)

     Called by c_bands:
     init_us_2    :      0.07s CPU      0.09s WALL (      51 calls)
     cegterg      :    120.35s CPU    124.72s WALL (      99 calls)

     Called by *egterg:
     h_psi        :     73.33s CPU     76.05s WALL (    1543 calls)
     g_psi        :      0.20s CPU      0.20s WALL (    1393 calls)
     cdiaghg      :     11.89s CPU     12.23s WALL (    1444 calls)

     Called by h_psi:
     add_vuspsi   :      2.04s CPU      2.17s WALL (    1543 calls)

     General routines
     calbec       :      2.29s CPU      2.38s WALL (    1543 calls)
     fft          :      0.02s CPU      0.02s WALL (      10 calls)
     fftw         :     65.37s CPU     67.76s WALL (   59000 calls)
     davcio       :      0.01s CPU      0.01s WALL (      51 calls)

     Parallel routines
     fft_scatter  :      1.59s CPU      1.63s WALL (   59010 calls)

     PWSCF        :  2m 8.09s CPU     2m13.03s WALL


   This run was terminated on:  22:46:40  13Feb2023            

=------------------------------------------------------------------------------=
   JOB DONE.
=------------------------------------------------------------------------------=
