
     Program PWSCF v.5.1 starts on 13Feb2023 at 22:41:46 

     This program is part of the open-source Quantum ESPRESSO suite
     for quantum simulation of materials; please cite
         "P. Giannozzi et al., J. Phys.:Condens. Matter 21 395502 (2009);
          URL http://www.quantum-espresso.org", 
     in publications or presentations arising from this work. More details at
     http://www.quantum-espresso.org/quote

     Parallel version (MPI), running on     1 processors
     Waiting for input...
     Reading input from standard input

     Current dimensions of program PWSCF are:
     Max number of different atomic species (ntypx) = 10
     Max number of k-points (npk) =  40000
     Max angular momentum in pseudopotentials (lmaxx) =  3

     Atomic positions and unit cell read from directory:
     ./out/Si.save/

               file Si.pbe-mt_fhi.UPF: wavefunction(s)  4f renormalized

     Subspace diagonalization in iterative solution of the eigenvalue problem:
     a serial algorithm will be used


     G-vector sticks info
     --------------------
     sticks:   dense  smooth     PW     G-vecs:    dense   smooth      PW
     Sum         733     733    223                12939    12939    2229



     bravais-lattice index     =            2
     lattice parameter (alat)  =      10.2623  a.u.
     unit-cell volume          =     270.1967 (a.u.)^3
     number of atoms/cell      =            2
     number of atomic types    =            1
     number of electrons       =        78.00
     number of Kohn-Sham states=           40
     kinetic-energy cutoff     =      50.0000  Ry
     charge density cutoff     =     200.0000  Ry
     Exchange-correlation      = PBE ( 1  4  3  4 0)

     celldm(1)=  10.262347  celldm(2)=   0.000000  celldm(3)=   0.000000
     celldm(4)=   0.000000  celldm(5)=   0.000000  celldm(6)=   0.000000

     crystal axes: (cart. coord. in units of alat)
               a(1) = (  -0.500000   0.000000   0.500000 )  
               a(2) = (   0.000000   0.500000   0.500000 )  
               a(3) = (  -0.500000   0.500000   0.000000 )  

     reciprocal axes: (cart. coord. in units 2 pi/alat)
               b(1) = ( -1.000000 -1.000000  1.000000 )  
               b(2) = (  1.000000  1.000000  1.000000 )  
               b(3) = ( -1.000000  1.000000 -1.000000 )  


     PseudoPot. # 1 for Si read from file:
     /home/acedemo/psudo/Si.pbe-mt_fhi.UPF
     MD5 check sum: 259057c2adf9952f9ced37ae3d9e311d
     Pseudo is Norm-conserving, Zval =  4.0
     Generated using FHI98PP, converted with fhi2upf.x v.5.0.2
     Using radial grid of  495 points,  3 beta functions with: 
                l(1) =   0
                l(2) =   1
                l(3) =   3

     atomic species   valence    mass     pseudopotential
        Si             4.00    28.08550     Si( 1.00)

     48 Sym. Ops., with inversion, found (24 have fractional translation)



   Cartesian axes

     site n.     atom                  positions (alat units)
         1           Si  tau(   1) = (   0.0000000   0.0000000   0.0000000  )
         2           Si  tau(   2) = (   0.2500000   0.2500000   0.2500000  )

     number of k points=    72 (tetrahedron method)
                       cart. coord. in units 2pi/alat
        k(    1) = (   0.0000000   0.0000000   0.0000000), wk =   0.0011574
        k(    2) = (  -0.0833333   0.0833333  -0.0833333), wk =   0.0092593
        k(    3) = (  -0.1666667   0.1666667  -0.1666667), wk =   0.0092593
        k(    4) = (  -0.2500000   0.2500000  -0.2500000), wk =   0.0092593
        k(    5) = (  -0.3333333   0.3333333  -0.3333333), wk =   0.0092593
        k(    6) = (  -0.4166667   0.4166667  -0.4166667), wk =   0.0092593
        k(    7) = (   0.5000000  -0.5000000   0.5000000), wk =   0.0046296
        k(    8) = (   0.0000000   0.1666667   0.0000000), wk =   0.0069444
        k(    9) = (  -0.0833333   0.2500000  -0.0833333), wk =   0.0277778
        k(   10) = (  -0.1666667   0.3333333  -0.1666667), wk =   0.0277778
        k(   11) = (  -0.2500000   0.4166667  -0.2500000), wk =   0.0277778
        k(   12) = (  -0.3333333   0.5000000  -0.3333333), wk =   0.0277778
        k(   13) = (   0.5833333  -0.4166667   0.5833333), wk =   0.0277778
        k(   14) = (   0.5000000  -0.3333333   0.5000000), wk =   0.0277778
        k(   15) = (   0.4166667  -0.2500000   0.4166667), wk =   0.0277778
        k(   16) = (   0.3333333  -0.1666667   0.3333333), wk =   0.0277778
        k(   17) = (   0.2500000  -0.0833333   0.2500000), wk =   0.0277778
        k(   18) = (   0.1666667  -0.0000000   0.1666667), wk =   0.0138889
        k(   19) = (   0.0000000   0.3333333   0.0000000), wk =   0.0069444
        k(   20) = (  -0.0833333   0.4166667  -0.0833333), wk =   0.0277778
        k(   21) = (  -0.1666667   0.5000000  -0.1666667), wk =   0.0277778
        k(   22) = (  -0.2500000   0.5833333  -0.2500000), wk =   0.0277778
        k(   23) = (   0.6666667  -0.3333333   0.6666667), wk =   0.0277778
        k(   24) = (   0.5833333  -0.2500000   0.5833333), wk =   0.0277778
        k(   25) = (   0.5000000  -0.1666667   0.5000000), wk =   0.0277778
        k(   26) = (   0.4166667  -0.0833333   0.4166667), wk =   0.0277778
        k(   27) = (   0.3333333   0.0000000   0.3333333), wk =   0.0138889
        k(   28) = (   0.0000000   0.5000000   0.0000000), wk =   0.0069444
        k(   29) = (  -0.0833333   0.5833333  -0.0833333), wk =   0.0277778
        k(   30) = (  -0.1666667   0.6666667  -0.1666667), wk =   0.0277778
        k(   31) = (   0.7500000  -0.2500000   0.7500000), wk =   0.0277778
        k(   32) = (   0.6666667  -0.1666667   0.6666667), wk =   0.0277778
        k(   33) = (   0.5833333  -0.0833333   0.5833333), wk =   0.0277778
        k(   34) = (   0.5000000   0.0000000   0.5000000), wk =   0.0138889
        k(   35) = (   0.0000000   0.6666667   0.0000000), wk =   0.0069444
        k(   36) = (  -0.0833333   0.7500000  -0.0833333), wk =   0.0277778
        k(   37) = (   0.8333333  -0.1666667   0.8333333), wk =   0.0277778
        k(   38) = (   0.7500000  -0.0833333   0.7500000), wk =   0.0277778
        k(   39) = (   0.6666667   0.0000000   0.6666667), wk =   0.0138889
        k(   40) = (   0.0000000   0.8333333   0.0000000), wk =   0.0069444
        k(   41) = (   0.9166667  -0.0833333   0.9166667), wk =   0.0277778
        k(   42) = (   0.8333333   0.0000000   0.8333333), wk =   0.0138889
        k(   43) = (   0.0000000  -1.0000000   0.0000000), wk =   0.0034722
        k(   44) = (  -0.1666667   0.3333333   0.0000000), wk =   0.0277778
        k(   45) = (  -0.2500000   0.4166667  -0.0833333), wk =   0.0555556
        k(   46) = (  -0.3333333   0.5000000  -0.1666667), wk =   0.0555556
        k(   47) = (   0.5833333  -0.4166667   0.7500000), wk =   0.0555556
        k(   48) = (   0.5000000  -0.3333333   0.6666667), wk =   0.0277778
        k(   49) = (  -0.1666667   0.5000000   0.0000000), wk =   0.0277778
        k(   50) = (  -0.2500000   0.5833333  -0.0833333), wk =   0.0555556
        k(   51) = (   0.6666667  -0.3333333   0.8333333), wk =   0.0555556
        k(   52) = (   0.5833333  -0.2500000   0.7500000), wk =   0.0555556
        k(   53) = (   0.5000000  -0.1666667   0.6666667), wk =   0.0555556
        k(   54) = (   0.4166667  -0.0833333   0.5833333), wk =   0.0555556
        k(   55) = (   0.3333333   0.0000000   0.5000000), wk =   0.0277778
        k(   56) = (  -0.1666667   0.6666667  -0.0000000), wk =   0.0277778
        k(   57) = (   0.7500000  -0.2500000   0.9166667), wk =   0.0555556
        k(   58) = (   0.6666667  -0.1666667   0.8333333), wk =   0.0555556
        k(   59) = (   0.5833333  -0.0833333   0.7500000), wk =   0.0555556
        k(   60) = (   0.5000000   0.0000000   0.6666667), wk =   0.0277778
        k(   61) = (   0.8333333  -0.1666667   1.0000000), wk =   0.0277778
        k(   62) = (   0.7500000  -0.0833333   0.9166667), wk =   0.0555556
        k(   63) = (   0.6666667   0.0000000   0.8333333), wk =   0.0277778
        k(   64) = (  -0.1666667  -1.0000000   0.0000000), wk =   0.0138889
        k(   65) = (   0.6666667  -0.3333333   1.0000000), wk =   0.0277778
        k(   66) = (   0.5833333  -0.2500000   0.9166667), wk =   0.0555556
        k(   67) = (   0.5000000  -0.1666667   0.8333333), wk =   0.0277778
        k(   68) = (   0.6666667  -0.1666667   1.0000000), wk =   0.0277778
        k(   69) = (   0.5833333  -0.0833333   0.9166667), wk =   0.0555556
        k(   70) = (   0.5000000   0.0000000   0.8333333), wk =   0.0277778
        k(   71) = (  -0.3333333  -1.0000000   0.0000000), wk =   0.0138889
        k(   72) = (  -0.5000000  -1.0000000   0.0000000), wk =   0.0069444

     Dense  grid:    12939 G-vectors     FFT dimensions: (  36,  36,  36)

     Largest allocated arrays     est. size (Mb)     dimensions
        Kohn-Sham Wavefunctions         1.00 Mb     (    1639,   40)
        NL pseudopotentials             0.55 Mb     (    1639,   22)
        Each V/rho on FFT grid          0.71 Mb     (   46656)
        Each G-vector array             0.10 Mb     (   12939)
        G-vector shells                 0.00 Mb     (     180)
     Largest temporary arrays     est. size (Mb)     dimensions
        Auxiliary wavefunctions         4.00 Mb     (    1639,  160)
        Each subspace H/S matrix        0.39 Mb     (     160,  160)
        Each <psi_i|beta_j> matrix      0.01 Mb     (      22,   40)

     The potential is recalculated from file :
     ./out/Si.save/charge-density.dat

     Starting wfc are   32 randomized atomic wfcs +    8 random wfc

     Band Structure Calculation
     Davidson diagonalization with overlap

     ethr =  2.05E-12,  avg # of iterations = 23.9

     Warning: ef = 40.125461 is above the highest band at k-point   2
              e  =  39.887564

     Warning: ef = 40.125461 is above the highest band at k-point   3
              e  =  39.834188

     Warning: ef = 40.125461 is above the highest band at k-point   4
              e  =  39.758768

     Warning: ef = 40.125461 is above the highest band at k-point   5
              e  =  39.470493

     Warning: ef = 40.125461 is above the highest band at k-point   6
              e  =  39.809410

     Warning: ef = 40.125461 is above the highest band at k-point   7
              e  =  39.577723

     Warning: ef = 40.125461 is above the highest band at k-point   8
              e  =  39.495909

     Warning: ef = 40.125461 is above the highest band at k-point   9
              e  =  39.461272

     Warning: ef = 40.125461 is above the highest band at k-point  10
              e  =  39.452469

     Warning: ef = 40.125461 is above the highest band at k-point  11
              e  =  39.490241

     Warning: ef = 40.125461 is above the highest band at k-point  16
              e  =  39.004611

     Warning: ef = 40.125461 is above the highest band at k-point  17
              e  =  38.841770

     Warning: ef = 40.125461 is above the highest band at k-point  18
              e  =  38.962083

     Warning: ef = 40.125461 is above the highest band at k-point  19
              e  =  38.727954

     Warning: ef = 40.125461 is above the highest band at k-point  20
              e  =  38.745339

     Warning: ef = 40.125461 is above the highest band at k-point  21
              e  =  39.601995

     Warning: ef = 40.125461 is above the highest band at k-point  26
              e  =  38.513560

     Warning: ef = 40.125461 is above the highest band at k-point  27
              e  =  38.555783

     Warning: ef = 40.125461 is above the highest band at k-point  28
              e  =  37.409184

     Warning: ef = 40.125461 is above the highest band at k-point  29
              e  =  38.011920

     Warning: ef = 40.125461 is above the highest band at k-point  35
              e  =  38.084289

     Warning: ef = 40.125461 is above the highest band at k-point  36
              e  =  39.285936

     Warning: ef = 40.125461 is above the highest band at k-point  40
              e  =  37.117667

     Warning: ef = 40.125461 is above the highest band at k-point  41
              e  =  38.594174

     Warning: ef = 40.125461 is above the highest band at k-point  43
              e  =  35.865833

     Warning: ef = 40.125461 is above the highest band at k-point  44
              e  =  39.394749

     Warning: ef = 40.125461 is above the highest band at k-point  45
              e  =  39.179663

     Warning: ef = 40.125461 is above the highest band at k-point  46
              e  =  39.543096

     Warning: ef = 40.125461 is above the highest band at k-point  49
              e  =  39.361820

     Warning: ef = 40.125461 is above the highest band at k-point  50
              e  =  40.022650

     Warning: ef = 40.125461 is above the highest band at k-point  55
              e  =  39.795589

     Warning: ef = 40.125461 is above the highest band at k-point  56
              e  =  38.836585

     Warning: ef = 40.125461 is above the highest band at k-point  61
              e  =  39.642644

     Warning: ef = 40.125461 is above the highest band at k-point  64
              e  =  39.544145

     Warning: ef = 40.125461 is above the highest band at k-point  65
              e  =  39.823318

     total cpu time spent up to now is      149.1 secs

     End of band structure calculation

          k = 0.0000 0.0000 0.0000 (  1639 PWs)   bands (ev):

   -14.5726  -0.6770  -0.6770  -0.6770  -0.3472  -0.3472  -0.3472   2.2569
     2.3337   4.3409   4.3409   5.1537   5.1537   5.1537   9.0482  21.7967
    21.7967  21.7967  23.2963  23.2963  24.5504  24.5504  24.5504  25.4068
    25.4068  25.4068  31.1223  34.4184  34.4184  34.4184  35.8294  35.8294
    36.3818  36.3818  38.2967  38.2967  38.2967  40.1688  40.1688  40.1688

          k =-0.0833 0.0833-0.0833 (  1612 PWs)   bands (ev):

   -14.4683  -2.3863  -1.2209  -1.2209   0.2728   0.3494   0.3494   2.5873
     3.1326   3.2547   3.2547   5.0695   6.4910   6.4910   9.6481  20.3408
    20.3408  20.7208  22.7820  22.7820  24.7743  24.7743  25.2184  25.5103
    27.4504  27.4504  31.3335  33.3174  33.8085  33.8085  34.5245  34.5245
    35.2637  35.2637  37.6973  37.6973  38.0675  38.3912  39.4794  39.8876

          k =-0.1667 0.1667-0.1667 (  1591 PWs)   bands (ev):

   -14.1555  -4.3777  -1.7219  -1.7219   0.1182   1.0494   1.0494   2.3826
     2.3826   2.6755   4.2279   6.2854   8.3748   8.3748  11.0555  17.6737
    17.6737  18.7583  22.9317  22.9317  25.0275  25.0275  25.8198  25.9934
    30.0859  30.0859  30.1138  31.5376  31.5376  32.8109  32.8109  33.2657
    33.8471  33.8471  35.0717  36.1768  37.0673  37.0673  38.3866  39.8342

          k =-0.2500 0.2500-0.2500 (  1618 PWs)   bands (ev):

   -13.6349  -6.2582  -2.0449  -2.0449  -0.0818   0.5560   0.5560   2.0656
     3.1064   3.1064   5.3054   8.8272  10.4807  10.4807  12.8656  15.0343
    15.0343  16.6584  23.2831  23.2831  25.3971  25.3971  25.7896  26.3313
    27.6845  27.6845  28.2262  31.1609  31.1609  31.5352  31.6318  31.6318
    33.9230  34.1828  35.0087  35.0087  36.7244  36.7244  37.8025  39.7588

          k =-0.3333 0.3333-0.3333 (  1616 PWs)   bands (ev):

   -12.9079  -7.9719  -2.1966  -2.1966  -0.2103  -0.2103  -0.1454   1.3438
     4.5257   4.5257   6.6275  11.6525  12.4683  12.4683  12.8783  12.8783
    14.6269  14.9753  23.3907  23.3907  23.7719  24.6661  24.6661  26.1524
    26.1524  26.3438  27.0321  29.7566  29.8949  29.8949  30.3244  30.3244
    32.4228  33.3657  36.3547  36.3547  38.1396  38.4882  38.4882  39.4705

          k =-0.4167 0.4167-0.4167 (  1616 PWs)   bands (ev):

   -11.9771  -9.4990  -2.2130  -2.2130  -0.7722  -0.7722  -0.0357   0.7214
     6.1935   6.1935   8.0282  10.2588  10.2588  12.5321  14.9432  15.2954
    15.2954  17.1936  21.0194  21.0194  21.1692  23.2593  24.5429  24.5429
    26.7996  26.7996  27.8678  28.7668  28.7668  29.2322  29.2322  30.1523
    30.9515  32.2858  36.2644  36.2644  38.4073  38.8509  38.8509  39.8094

          k = 0.5000-0.5000 0.5000 (  1622 PWs)   bands (ev):

   -10.9359 -10.7395  -2.1899  -2.1899  -0.9903  -0.9903   0.2546   0.2554
     7.7608   7.7608   8.4895   8.4895   8.8860  11.6056  17.2726  17.4463
    17.4463  18.3235  18.7160  18.7160  19.7262  20.9322  24.7467  24.7467
    27.4141  27.4141  28.0313  28.0313  28.4388  28.7643  28.7643  30.1686
    30.8344  31.4295  36.2313  36.2313  38.5156  38.7396  38.7396  39.5777

          k = 0.0000 0.1667 0.0000 (  1615 PWs)   bands (ev):

   -14.4335  -1.9518  -1.9518  -1.2516  -0.9827   1.1499   1.1499   1.7096
     3.2175   3.3583   4.4809   5.3302   5.3302   6.9158  10.0224  20.0259
    20.0259  21.0438  21.9256  22.1260  24.9769  24.9769  25.1365  27.0896
    27.0896  27.8505  31.4249  32.8255  32.8255  33.5908  34.1827  34.3109
    35.4401  36.0583  37.3560  37.3560  37.8651  38.4924  38.4924  39.4959

          k =-0.0833 0.2500-0.0833 (  1599 PWs)   bands (ev):

   -14.1902  -3.6505  -2.5105  -1.6304  -0.5303   0.5889   1.4273   1.9886
     3.6757   3.7882   4.3650   5.8078   6.7974   8.1815  11.4025  17.6340
    18.1418  20.6867  20.8084  21.8822  24.5912  25.2033  26.7512  27.6132
    28.6822  30.4114  30.4625  31.3113  31.3543  32.3617  32.5358  33.5161
    34.2140  34.8975  35.7208  36.6501  36.6977  38.2369  38.7343  39.4613

          k =-0.1667 0.3333-0.1667 (  1610 PWs)   bands (ev):

   -13.7389  -5.5628  -2.8793  -2.0194  -0.7560   0.8938   1.2418   1.8977
     3.3272   3.8678   5.4785   8.0261   8.8118  10.0315  13.2129  14.9393
    15.7788  18.5552  21.1480  22.1487  24.4777  25.5812  27.0431  27.6801
    27.9723  29.0749  29.5809  29.8298  30.1606  31.8619  32.5623  32.6411
    33.3554  34.4346  34.8419  35.0019  36.1193  37.9276  38.1022  39.4525

          k =-0.2500 0.4167-0.2500 (  1606 PWs)   bands (ev):

   -13.0808  -7.3316  -3.0550  -2.3382  -1.4820   1.0942   1.1018   1.8883
     2.9509   5.1560   6.7847  10.7826  11.0383  12.1746  12.4079  13.4514
    15.2608  16.3981  21.6396  22.6084  23.0379  25.5411  25.8405  26.0207
    26.6627  27.7366  27.8181  28.8693  28.9751  30.4749  31.3202  31.3491
    33.7705  34.4895  34.7146  36.1019  36.8241  38.2122  38.6323  39.4902

          k =-0.3333 0.5000-0.3333 (  1616 PWs)   bands (ev):

   -12.2177  -8.9211  -3.0393  -2.7615  -1.7667   0.3815   1.1070   1.6762
     4.1228   6.7407   8.1891  10.0365  11.1853  13.5064  13.5153  14.3918
    14.7840  17.5385  20.2939  22.0033  22.4806  23.3187  23.6502  24.7902
    26.0514  26.5656  26.9229  27.9321  29.4097  29.8507  30.0606  31.3174
    33.3195  33.5575  33.8158  36.0948  37.5333  39.2647  39.6100  40.5769

          k = 0.5833-0.4167 0.5833 (  1615 PWs)   bands (ev):

   -11.1585 -10.3119  -3.2182  -2.8380  -1.6363  -0.1421   1.0183   1.5135
     5.8315   7.6879   8.7112   8.7503  10.0280  12.5175  16.1042  16.1943
    17.3353  18.0621  19.0080  20.1936  20.2977  21.9384  23.0171  23.9947
    25.8094  25.8119  27.6437  27.6459  28.9298  29.2683  30.0903  32.1318
    32.4674  32.6878  33.7094  35.5925  37.0877  39.7638  40.2391  42.2122

          k = 0.5000-0.3333 0.5000 (  1616 PWs)   bands (ev):

   -11.5312  -9.8728  -3.5443  -2.4670  -1.2477  -0.4467   0.7463   1.8419
     5.8337   6.6813   8.1870   9.6571  10.6683  12.6583  14.5334  16.1062
    17.1758  18.4099  19.2513  19.8457  20.9186  22.8240  23.0872  23.9200
    25.9251  26.1028  27.3460  27.5870  29.1071  29.5911  29.9995  31.6687
    32.6238  33.1900  34.0052  35.3160  36.8257  40.0167  40.6087  41.6959

          k = 0.4167-0.2500 0.4167 (  1611 PWs)   bands (ev):

   -12.5280  -8.4121  -3.6924  -1.9681  -0.6517  -0.4916   0.5990   2.3446
     4.0871   5.2391   8.1594  10.2456  12.0824  12.7396  12.8735  14.6495
    14.7647  16.3235  21.8249  21.9533  22.5216  23.1880  24.6127  25.4469
    26.3664  26.8119  27.3523  27.6570  29.4517  30.2206  30.4404  31.0040
    33.5855  34.1808  34.5108  35.3266  36.8284  38.7518  39.8215  40.4941

          k = 0.3333-0.1667 0.3333 (  1605 PWs)   bands (ev):

   -13.3231  -6.7606  -3.6500  -1.4371  -0.2030   0.1158   0.6292   2.5673
     2.6720   4.1512   6.7103   9.7681   9.8632  12.3706  12.6377  14.1458
    15.3090  16.5717  21.5473  22.2829  24.5953  25.1090  26.0630  26.1878
    27.7359  28.0370  28.4865  28.9271  29.3429  31.1293  31.4669  31.8612
    34.4445  34.4952  35.2465  35.3998  35.9757  36.7485  37.5365  39.0046

          k = 0.2500-0.0833 0.2500 (  1600 PWs)   bands (ev):

   -13.9124  -4.9364  -3.4139  -0.9518   0.2888   0.7058   1.1203   1.4874
     1.9530   4.3801   5.3773   7.1583   7.7386  10.1998  12.2114  15.1737
    17.8511  18.6047  21.1051  22.0005  24.7100  25.3693  27.4927  27.6310
    28.8458  28.9724  30.0737  30.2642  31.0522  31.5688  32.5388  33.2624
    33.9057  34.2527  34.5984  35.2105  36.2966  37.2811  37.6791  38.8418

          k = 0.1667-0.0000 0.1667 (  1592 PWs)   bands (ev):

   -14.2945  -3.0032  -2.9705  -0.5744  -0.0786   0.8048   1.0044   1.9690
     2.1062   4.0905   4.3403   5.5629   6.2633   8.2307  10.5965  17.8349
    20.0803  20.2259  21.2369  22.1445  24.5680  25.0850  26.5448  27.4481
    27.6286  29.5039  31.2343  31.8959  32.3795  32.6778  33.1205  34.0542
    34.1210  34.6552  36.1654  37.0398  37.4171  38.4665  38.5201  38.9621

          k = 0.0000 0.3333 0.0000 (  1607 PWs)   bands (ev):

   -14.0165  -3.1309  -3.1309  -2.2857  -2.0010  -0.8014   2.9481   2.9481
     4.9006   4.9262   4.9745   5.9062   5.9062   7.9756  12.8269  17.4770
    17.4770  18.2280  20.2405  22.3114  25.3530  25.3729  25.3729  29.0564
    29.0564  29.9559  30.5057  30.5638  30.5638  31.0535  32.1252  34.6515
    34.8278  35.5934  35.5934  35.6732  37.0388  37.4208  37.4208  38.7280

          k =-0.0833 0.4167-0.0833 (  1616 PWs)   bands (ev):

   -13.6348  -4.7012  -3.5610  -2.7181  -2.0443  -1.2119   3.2599   3.3786
     4.8399   4.9041   6.1357   7.4448   7.4837   9.0759  14.6338  15.0244
    15.6982  18.2243  19.7832  21.4172  24.2943  25.6960  26.5262  27.1847
    27.3533  28.4698  30.0377  30.7927  30.9950  32.0729  32.0792  33.1806
    34.3883  34.7735  34.8374  35.9753  36.0216  36.9855  38.3585  38.7453

          k =-0.1667 0.5000-0.1667 (  1611 PWs)   bands (ev):

   -13.0460  -6.4987  -3.7959  -3.4198  -2.5226   0.0093   2.6677   3.1681
     4.2200   5.9457   7.4408   9.5599  10.1114  10.9478  12.4307  13.5238
    16.6609  18.7086  18.9610  20.4408  22.4950  25.1428  25.6328  26.2226
    26.5376  27.3797  28.8929  29.2816  30.3147  31.5146  31.8740  32.1920
    32.9057  34.5511  34.6303  36.0311  37.7077  38.3637  38.9065  39.6020

          k =-0.2500 0.5833-0.2500 (  1610 PWs)   bands (ev):

   -12.2517  -8.1428  -4.1736  -3.8344  -2.6231   1.4109   1.9016   3.0768
     3.7391   7.4513   8.7863  10.0022  11.3426  11.9453  12.8377  13.4256
    16.9201  18.9065  19.3283  19.4374  21.1670  23.6912  24.1838  24.6706
    25.6859  26.4123  26.9372  27.6489  29.2335  30.5727  31.6917  32.4097
    32.9851  33.9489  35.1815  37.2816  37.5738  37.8408  40.6392  40.6832

          k = 0.6667-0.3333 0.6667 (  1607 PWs)   bands (ev):

   -11.2561  -9.6002  -4.7838  -3.6773  -2.4781   1.2970   2.1619   3.5576
     3.8062   7.6514   8.8032   9.3379  10.8931  14.4966  14.7520  14.9817
    16.5968  17.0560  19.8920  20.3261  21.5502  21.7424  22.6810  23.1962
    23.5126  24.2489  27.5219  27.6751  28.7942  29.4430  31.1986  33.0021
    33.3961  33.9291  34.6448  36.5735  36.8913  39.8588  41.2822  41.4945

          k = 0.5833-0.2500 0.5833 (  1602 PWs)   bands (ev):

   -10.8842 -10.0380  -5.2091  -3.3273  -2.1224   0.8848   1.9906   3.8651
     5.3206   5.6684   7.2844  11.2493  11.7796  13.4416  13.9356  17.1696
    17.3426  17.9204  19.4560  19.8804  20.5588  20.7430  22.3777  22.9504
    23.3636  24.3644  27.7732  27.9423  28.6383  29.1274  31.3283  32.7721
    33.5459  33.8769  34.7290  36.1413  36.5084  39.0005  41.5748  42.4559

          k = 0.5000-0.1667 0.5000 (  1610 PWs)   bands (ev):

   -11.9420  -8.6494  -5.4391  -2.7910  -1.5669   0.6756   1.8120   3.8470
     3.9751   5.5117   7.8357  10.4069  11.6302  13.3879  13.9037  15.1326
    16.8557  18.1549  19.6035  20.2094  20.5356  21.8265  23.4019  23.7845
    24.6958  26.0919  27.2341  28.1833  29.2945  30.1166  31.8673  32.2913
    33.1896  33.5930  34.6873  36.3957  36.9862  37.9185  39.1771  40.9695

          k = 0.4167-0.0833 0.4167 (  1613 PWs)   bands (ev):

   -12.8041  -7.0635  -5.4703  -2.0860  -0.8214   0.6747   1.7577   2.2423
     3.1162   5.5700   8.3131   9.7923  10.1347  11.1222  14.4386  15.7443
    15.9379  16.8171  19.0547  20.4383  23.4833  23.5633  25.1104  25.3787
    26.1197  26.6226  27.6507  30.0662  30.3940  31.2839  31.8719  32.0852
    33.0110  33.5527  34.6084  35.5816  35.7751  37.9683  38.3869  38.5136

          k = 0.3333 0.0000 0.3333 (  1604 PWs)   bands (ev):

   -13.4616  -5.3141  -5.2905  -1.2801   0.0944   0.7273   1.0818   1.7032
     1.9981   5.9158   6.5767   8.1958   8.5547  12.2349  12.5692  13.9632
    17.7679  18.2115  18.9658  20.6788  24.6630  25.5283  26.9126  26.9211
    27.0689  27.4071  29.9659  30.6601  31.0468  31.3129  31.5014  33.0043
    33.3877  34.0629  34.1809  34.2367  36.0743  36.4627  38.3062  38.5558

          k = 0.0000 0.5000 0.0000 (  1612 PWs)   bands (ev):

   -13.3229  -4.0550  -4.0550  -3.7385  -2.8854  -2.7024   4.6956   4.6956
     5.6000   6.8990   7.0607   7.0701   7.0701   8.8981  15.0631  15.0631
    15.6198  16.3983  18.2963  22.9456  24.0777  25.3402  25.3402  26.0077
    26.0077  26.2875  29.1418  30.8842  32.9293  33.6801  33.6801  33.8761
    34.1778  34.1778  35.7550  36.2814  36.5204  36.5204  36.9514  37.4092

          k =-0.0833 0.5833-0.0833 (  1617 PWs)   bands (ev):

   -12.8038  -5.5090  -4.6717  -4.3538  -3.1444  -2.0481   4.4287   4.9804
     6.4068   6.6703   8.2619   8.5709   9.6392   9.9952  12.6485  13.4548
    15.8231  17.9361  18.3706  21.7040  22.3099  23.5378  23.7427  25.1353
    26.4283  26.7947  28.8884  30.3045  31.3509  32.5261  32.7321  33.5675
    33.5726  34.8134  35.0780  36.1152  37.1566  37.5187  37.8581  38.0119

          k =-0.1667 0.6667-0.1667 (  1620 PWs)   bands (ev):

   -12.0789  -7.1745  -5.5568  -4.4553  -3.2614  -0.6208   3.6415   4.6825
     6.0546   8.2138   9.5406  10.0949  10.8003  11.4752  11.8750  12.6059
    16.4333  18.0577  18.9061  20.2237  20.8022  21.9338  22.4899  24.5045
    26.5156  27.0091  27.1675  28.2780  29.7301  31.2982  32.1932  32.7865
    32.9568  34.3615  35.3971  37.3146  38.4120  38.4435  39.2011  40.3026

          k = 0.7500-0.2500 0.7500 (  1617 PWs)   bands (ev):

   -11.1511  -8.6860  -6.2570  -4.3592  -3.1675   0.9957   2.9775   4.2607
     5.9801   7.7728   9.0356  10.0574  11.6596  13.1577  13.7874  15.4515
    16.1706  17.1287  17.7163  19.8003  20.6347  20.9186  22.4328  23.1206
    25.1753  25.3990  26.3358  27.8046  28.2232  30.1434  31.2748  32.3477
    33.6666  34.8913  36.0253  37.8415  39.2453  39.4444  39.6192  41.1422

          k = 0.6667-0.1667 0.6667 (  1607 PWs)   bands (ev):

   -10.1165  -9.9163  -6.7605  -4.0666  -2.8697   2.4950   2.5650   4.1092
     5.6999   5.8660   7.5982  11.9480  12.6055  13.3653  15.7552  15.8001
    16.7268  17.5737  18.5090  18.7952  19.9482  20.7278  20.9533  22.3659
    23.2371  25.4346  25.9620  28.3172  28.3651  29.4419  30.9670  31.8914
    33.2607  35.2644  36.4721  36.7734  39.2070  39.7083  41.4328  41.5788

          k = 0.5833-0.0833 0.5833 (  1611 PWs)   bands (ev):

   -11.1520  -8.6825  -7.0636  -3.5803  -2.3727   2.2073   3.1044   3.8069
     4.5075   5.6485   7.3037  10.2350  13.8291  13.9984  15.1146  15.7772
    17.2427  18.3735  18.3766  19.6069  20.1539  20.3654  20.8958  21.5620
    23.4835  26.2387  26.6558  27.8267  29.3504  30.1295  31.3816  31.6395
    33.0893  34.1170  35.7962  36.4303  39.5723  39.7843  39.8771  41.8177

          k = 0.5000 0.0000 0.5000 (  1604 PWs)   bands (ev):

   -12.0794  -7.1738  -7.1557  -2.9089  -1.6840   2.0694   2.1727   2.9258
     3.3694   7.0993   7.9182   8.1973  12.3741  12.5801  15.7160  16.4691
    16.8380  17.1003  18.1434  19.0850  21.7454  21.9275  22.1613  23.1821
    26.0638  26.7540  27.1158  27.1998  31.0279  31.2886  31.8152  31.8214
    33.0366  33.6574  34.5888  35.8570  36.2324  39.7983  39.9724  40.3878

          k = 0.0000 0.6667 0.0000 (  1624 PWs)   bands (ev):

   -12.3546  -5.8449  -4.7176  -4.7176  -3.5405  -3.5127   6.1768   6.1768
     6.5786   8.8365   9.0082   9.0082   9.2861  10.2590  12.8909  12.8909
    13.2670  16.5328  20.2689  21.3838  21.6049  21.6049  22.6638  23.9978
    26.8134  26.8134  28.7364  30.0026  32.3557  32.3557  32.9651  33.2673
    35.2759  35.6536  35.7696  35.7696  35.9984  35.9984  36.2018  38.0843

          k =-0.0833 0.7500-0.0833 (  1618 PWs)   bands (ev):

   -11.6996  -6.8138  -6.0067  -4.8840  -3.6998  -2.5790   5.5762   6.3307
     8.4003   8.5993  10.1614  10.2303  10.8478  11.1588  11.6757  12.0744
    13.6750  16.3011  18.6344  19.8891  20.4452  21.8300  22.1736  23.4653
    27.0721  27.3600  27.6957  30.6810  30.8955  31.5019  31.7212  32.5432
    32.9211  34.0939  36.1854  36.3040  36.6725  37.6660  37.9750  39.2859

          k = 0.8333-0.1667 0.8333 (  1619 PWs)   bands (ev):

   -10.8412  -7.6819  -7.4563  -4.8522  -3.6686  -1.0039   4.8653   5.9402
     8.0757   8.1883   9.6633  10.4825  12.3820  12.4894  12.7526  14.4031
    14.6985  15.6113  17.3457  18.4472  19.0901  21.4260  21.7742  24.2941
    24.8550  27.7664  27.9309  28.1394  28.9367  30.6925  31.6084  31.8353
    32.8960  33.3577  36.2370  37.3289  37.7144  38.7828  39.7946  40.6701

          k = 0.7500-0.0833 0.7500 (  1620 PWs)   bands (ev):

    -9.7890  -8.9583  -8.1296  -4.6227  -3.4345   0.7661   4.3206   5.5227
     5.9275   6.8650   9.3073  12.1925  12.5204  14.0140  14.6513  15.0367
    15.2584  17.1621  17.4846  17.9615  18.5933  20.1234  21.0334  22.5896
    24.9118  25.5605  26.9671  28.7096  28.8312  30.0538  30.8781  31.5161
    32.1076  33.1142  37.3343  38.4159  39.7536  40.2155  40.8065  41.0946

          k = 0.6667 0.0000 0.6667 (  1612 PWs)   bands (ev):

   -10.1634  -8.5216  -8.4989  -4.1970  -3.0005   2.5878   3.9456   3.9849
     5.2061   5.2911   9.2453  10.0509  14.1949  15.2158  15.4083  15.8587
    17.0401  17.5033  17.5447  17.6662  19.0924  19.4250  22.2116  22.2878
    22.4310  23.9769  27.1514  28.5031  29.9337  30.2140  30.6660  31.4520
    31.8850  32.6299  37.4692  38.7929  40.6450  41.1288  41.7217  41.7563

          k = 0.0000 0.8333 0.0000 (  1628 PWs)   bands (ev):

   -11.1149  -7.8446  -5.1158  -5.1158  -3.9397  -3.9344   7.5684   7.5684
     7.8360  10.3065  10.6290  10.6290  11.1816  11.1823  11.8714  11.8714
    12.4218  15.3865  18.0750  18.0750  18.4699  19.5353  23.9723  25.4540
    27.4522  27.8470  27.8470  30.3480  30.7780  30.7780  32.7652  32.8751
    33.7129  34.2050  35.4194  35.4194  35.6184  35.6184  35.6475  37.1177

          k = 0.9167-0.0833 0.9167 (  1622 PWs)   bands (ev):

   -10.3265  -8.6912  -6.2861  -5.1494  -3.9716  -2.8440   6.9477   7.7035
     8.5594   9.1750   9.9880  11.2073  11.6498  12.0996  12.5719  13.2808
    14.3632  15.2599  16.2934  16.5436  17.6533  18.8194  24.1800  25.7043
    26.5942  28.4451  28.6226  29.5694  30.1129  30.6654  31.2206  32.2084
    32.4344  33.3595  34.7460  35.0371  36.1496  37.1221  37.4991  38.5942

          k = 0.8333 0.0000 0.8333 (  1614 PWs)   bands (ev):

    -9.3427  -9.3362  -7.6940  -4.9847  -3.8034  -1.1324   6.3457   6.3490
     7.2345   7.4257  11.6009  11.8463  12.1885  12.5721  13.5637  14.2084
    14.7892  15.7288  16.0982  16.9203  18.2537  19.2168  22.5444  23.1913
    27.4928  27.7084  27.8862  28.8781  29.1550  29.9462  31.0023  31.2138
    31.8982  32.6974  35.8043  36.8533  37.3946  38.6510  40.5849  41.5855

          k = 0.0000-1.0000 0.0000 (  1604 PWs)   bands (ev):

    -9.6086  -9.6086  -5.2487  -5.2487  -4.0729  -4.0729   9.0069   9.0069
     9.1521   9.1521   9.3711   9.3711  11.3804  11.3804  14.1349  14.1349
    14.8169  14.8169  15.3336  15.3336  17.1563  17.1563  25.9575  25.9575
    28.7436  28.7436  28.7459  28.7459  29.6859  29.6859  32.7121  32.7121
    32.9062  32.9062  35.2888  35.2888  35.4698  35.4698  35.8658  35.8658

          k =-0.1667 0.3333 0.0000 (  1603 PWs)   bands (ev):

   -13.8777  -4.1565  -4.1280  -1.4221  -0.7772  -0.3460   2.1122   2.3169
     2.9142   5.3800   5.6328   6.5473   7.1495   9.5267  13.0194  15.1946
    17.5990  19.1881  20.5421  21.3008  23.4898  26.8655  27.2481  27.7774
    28.3584  29.5342  30.1201  30.6776  30.7153  31.5441  32.1609  32.3332
    34.2928  34.7727  34.9934  35.9580  35.9585  37.2392  37.8896  39.3947

          k =-0.2500 0.4167-0.0833 (  1607 PWs)   bands (ev):

   -13.3576  -5.9967  -4.4423  -2.1660  -0.9926   0.4109   1.4737   2.3074
     3.6231   5.1058   7.0943   8.5101   9.1237  11.4975  12.6281  14.9519
    15.6921  18.6330  19.2642  21.5585  23.0419  25.1927  26.4231  26.9369
    27.7920  28.8332  28.9506  29.4703  30.1864  30.9668  31.7253  32.4826
    33.4460  33.8312  35.0595  35.6219  36.9235  37.1828  37.7545  39.1797

          k =-0.3333 0.5000-0.1667 (  1604 PWs)   bands (ev):

   -12.6314  -7.7030  -4.5473  -2.9754  -1.1691   0.4772   1.9753   2.2705
     3.8812   5.5713   8.6242  10.1945  10.6222  11.9511  13.3903  13.8058
    16.5771  17.1970  19.6399  21.2761  22.1253  23.7670  24.6395  25.1016
    26.2551  26.9482  28.1398  28.6444  29.0274  30.4039  31.2951  32.3406
    32.9601  33.9381  35.5946  36.1990  36.9937  38.1377  38.6055  39.5431

          k = 0.5833-0.4167 0.7500 (  1612 PWs)   bands (ev):

   -11.7016  -9.2267  -4.4616  -3.6330  -1.1576  -0.0869   2.2827   3.0097
     4.0364   6.8915   8.1192  10.1087  11.3938  12.9493  14.3396  15.3400
    16.1695  18.5836  19.3186  20.2132  21.4550  22.3632  22.9821  23.5037
    24.8491  25.8636  26.1975  27.6837  29.0754  30.5331  31.3378  32.5088
    33.0225  33.2222  34.6579  35.8274  38.0202  39.1779  39.6936  40.2134

          k = 0.5000-0.3333 0.6667 (  1602 PWs)   bands (ev):

   -10.6622 -10.4648  -4.2818  -4.0059  -1.0964  -0.3407   2.3721   2.9256
     5.3876   6.0183   8.8838   9.1997  11.6392  13.2878  15.0700  15.9338
    18.0053  18.3112  19.0905  19.2016  21.0824  21.6491  22.5254  22.9977
    23.6143  25.4037  26.3932  26.7807  29.4058  30.3385  31.7987  32.1544
    32.7400  33.8793  33.9437  35.4000  38.0709  38.9771  40.9370  41.3384

          k =-0.1667 0.5000 0.0000 (  1617 PWs)   bands (ev):

   -13.1844  -5.0848  -5.0527  -3.4544  -1.6378  -1.5986   2.9819   4.2734
     4.8750   6.4828   6.7651   8.4488   8.8343  10.3662  12.7445  15.1870
    16.5320  16.8385  19.5813  21.1824  22.6845  24.4531  24.9793  26.7572
    27.1600  27.9318  28.9623  30.2304  31.0820  31.4150  32.2490  32.9321
    33.9641  34.7173  34.7784  35.6381  36.9649  37.5425  37.7213  39.3618

          k =-0.2500 0.5833-0.0833 (  1611 PWs)   bands (ev):

   -12.5275  -6.8021  -5.2443  -4.3748  -1.7999  -0.2871   2.1923   4.4248
     5.4436   6.5069   8.5908  10.0409  10.3444  11.3330  12.4102  13.4879
    16.8458  18.5554  19.3952  19.9979  20.9316  22.4276  24.1574  25.5382
    25.9063  27.4066  28.0875  29.1192  29.7693  30.5254  31.8007  32.2823
    33.5733  34.6324  35.9437  36.1991  37.4606  38.0876  39.5832  40.0227

          k = 0.6667-0.3333 0.8333 (  1617 PWs)   bands (ev):

   -11.6663  -8.3802  -5.3030  -5.0436  -1.7816   1.0152   1.7504   4.3797
     5.1336   7.4318   8.3902  10.4413  11.3943  12.0449  14.1586  14.8567
    17.0868  17.4665  18.1971  20.7054  20.7796  21.3133  23.1284  23.8857
    24.3669  25.5081  26.9309  27.7285  28.3829  30.0913  31.1860  32.9772
    33.8918  35.0609  36.4309  37.2299  37.6830  38.2661  40.1685  40.8328

          k = 0.5833-0.2500 0.7500 (  1607 PWs)   bands (ev):

   -10.6098  -9.7653  -5.7435  -4.9377  -1.5702   0.8302   3.0019   4.3497
     4.8789   5.9205   9.0541   9.7742  12.7732  13.8456  14.7958  15.5657
    17.0551  17.7133  18.5374  19.2965  20.5810  21.5445  21.6350  23.0281
    23.4337  24.9747  25.8190  26.5720  27.9954  30.3338  30.7529  33.0618
    34.0264  35.8806  36.1819  36.4869  38.1710  39.2404  39.8451  40.6106

          k = 0.5000-0.1667 0.6667 (  1605 PWs)   bands (ev):

   -10.9817  -9.3271  -6.1020  -4.5170  -1.1793   0.5275   3.3796   3.7969
     5.3755   5.4898   7.4766  11.4419  11.9698  13.5028  15.0747  16.4436
    16.7019  18.0041  18.5961  19.5194  20.6111  21.0845  21.7183  22.1671
    23.7626  25.0150  26.7263  26.8983  28.1940  30.2280  30.5507  33.3184
    33.9574  35.5607  35.9139  36.3447  37.3294  39.3895  40.1090  41.3479

          k = 0.4167-0.0833 0.5833 (  1610 PWs)   bands (ev):

   -11.9761  -7.8722  -6.2667  -3.8946  -0.6490   0.4280   1.8985   3.5747
     4.9313   6.3985   7.8479   9.4011  11.8353  13.2425  13.9076  15.8551
    16.8517  17.5755  19.1209  19.5265  20.8882  21.5677  22.8534  24.3364
    24.5452  25.6706  27.7482  28.3839  29.1272  30.1054  30.8816  33.0690
    33.9053  34.8904  35.0980  36.1427  37.6078  37.7691  39.8301  40.8526

          k = 0.3333 0.0000 0.5000 (  1606 PWs)   bands (ev):

   -12.7694  -6.2427  -6.2210  -3.0867  -0.1690   0.2615   0.9047   3.4191
     3.7731   6.6658   7.4371   9.9477  10.4681  10.5255  13.5456  15.5615
    16.9334  17.2720  18.6842  20.3948  22.1367  23.3906  24.3263  25.3630
    26.3560  28.4478  28.6078  28.8551  29.6063  30.8921  31.4576  33.0736
    33.4207  34.0239  34.6098  35.1681  36.8178  37.8218  38.8619  39.7956

          k =-0.1667 0.6667-0.0000 (  1626 PWs)   bands (ev):

   -12.2167  -5.8803  -5.7194  -5.5330  -2.2831  -2.2830   3.9587   6.0735
     7.2441   7.8844   8.0122  10.4802  10.8040  11.0644  11.3244  13.0328
    14.6894  17.7024  20.0527  20.3414  20.7520  22.1176  23.0008  23.7790
    25.4972  27.4591  28.7216  30.4088  30.5892  30.9756  31.1368  32.9046
    33.7559  34.5628  36.4959  36.7926  37.3917  37.6449  38.2473  38.8366

          k = 0.7500-0.2500 0.9167 (  1621 PWs)   bands (ev):

   -11.4249  -7.3504  -6.5216  -5.7381  -2.3203  -0.7843   3.2375   6.1867
     7.2966   8.0462   8.9561  10.0669  11.2097  12.4609  13.2772  13.8630
    14.9995  17.0067  18.4195  19.0292  20.6870  21.9544  22.7125  23.1451
    25.1286  25.3331  27.3540  28.8929  29.4739  30.2238  30.7296  33.0679
    33.9756  34.9611  36.3336  37.1278  38.3748  38.6237  39.2785  40.3084

          k = 0.6667-0.1667 0.8333 (  1616 PWs)   bands (ev):

   -10.4329  -8.7880  -7.1612  -5.5800  -2.1606   0.8845   2.6891   5.6709
     5.9257   7.5374   9.3461  10.5171  12.4416  13.5263  14.5207  15.4119
    15.6106  17.2346  17.8194  18.2038  20.0935  20.5753  21.7390  23.7853
    23.9384  24.9435  26.1216  27.0857  28.0182  29.6016  30.7374  33.4777
    34.6703  35.1540  36.4534  36.9825  38.8484  39.6777  40.5556  40.9659

          k = 0.5833-0.0833 0.7500 (  1614 PWs)   bands (ev):

   -10.0646  -9.2188  -7.6007  -5.2154  -1.8077   1.9951   2.9123   3.8936
     5.5895   6.8395   8.4296  11.2548  12.3758  14.8210  15.4233  15.9537
    16.7765  16.9122  18.0837  18.7342  19.6684  20.6172  21.1102  21.6126
    23.8753  24.6717  25.5588  27.4167  27.9804  29.4584  30.7871  33.3195
    33.9540  34.8822  36.5129  37.7886  39.4735  39.9888  41.7756  41.9781

          k = 0.5000 0.0000 0.6667 (  1621 PWs)   bands (ev):

   -11.1172  -7.8477  -7.8284  -4.6512  -1.2742   1.7967   2.0276   4.4555
     5.3673   5.8898   8.3992   9.1464  13.8554  14.3421  14.8618  15.9624
    17.0274  17.6330  17.7700  19.4249  19.9244  21.0107  21.0252  22.6710
    24.1955  25.0990  25.1674  27.9178  29.0775  29.6866  31.3568  32.3294
    34.4252  34.9290  35.3840  37.1898  39.2106  39.7390  41.1173  41.1760

          k = 0.8333-0.1667 1.0000 (  1617 PWs)   bands (ev):

   -10.9779  -7.7151  -6.1207  -6.1111  -2.6807  -2.6776   5.1721   7.5934
     8.2771   9.0338   9.8905  10.4805  11.0382  12.3842  12.4226  13.3522
    13.7823  15.9676  17.3022  17.3522  19.9042  20.4819  22.9545  24.7139
    25.6726  26.4877  29.1742  29.8408  29.9672  30.2176  31.1284  32.6339
    33.3796  33.4289  35.9074  36.1800  36.7013  36.9752  39.6183  39.6426

          k = 0.7500-0.0833 0.9167 (  1620 PWs)   bands (ev):

   -10.0545  -8.4302  -7.5873  -6.0176  -2.5818  -1.0380   4.5543   6.1061
     7.6631   9.0892  10.4510  10.8735  11.8224  12.9062  13.5781  14.2892
    14.9382  16.0887  16.3955  17.8411  18.8515  20.2539  21.9550  23.4500
    25.8452  26.6882  26.9212  28.3805  28.7728  30.0016  30.8634  32.6557
    33.2079  34.3727  35.8506  36.1006  37.4307  39.7337  40.6703  41.0415

          k = 0.6667 0.0000 0.8333 (  1620 PWs)   bands (ev):

    -9.0697  -8.9295  -8.7731  -5.7167  -2.2887   0.7843   4.0867   4.1044
     7.1853   7.4151  10.4798  11.0423  12.4910  13.5470  14.3391  14.8747
    15.7782  17.1650  17.9539  18.2536  19.5292  19.7447  21.3233  21.5089
    23.8283  26.0260  26.7023  27.8253  27.8796  29.6242  30.6203  32.3615
    33.7275  34.3964  36.6797  37.4534  39.5384  40.8104  41.1545  42.4254

          k =-0.1667-1.0000 0.0000 (  1622 PWs)   bands (ev):

    -9.4733  -9.4733  -6.2531  -6.2531  -2.8114  -2.8114   6.6261   6.6261
     9.1659   9.1659  10.4354  10.4354  12.5689  12.5689  13.1642  13.1642
    14.9108  14.9108  16.4517  16.4517  17.9671  17.9671  24.3302  24.3302
    27.3944  27.3944  28.7436  28.7436  30.1228  30.1228  31.3006  31.3006
    33.1620  33.1620  35.1155  35.1155  36.6374  36.6374  39.5441  39.5441

          k = 0.6667-0.3333 1.0000 (  1610 PWs)   bands (ev):

   -11.8036  -6.9189  -6.8917  -5.2694  -0.4741  -0.3519   1.4714   5.5303
     6.2113   7.4077   8.4027   8.4347  12.4895  12.7682  13.2949  14.6637
    15.4042  18.5785  19.3703  19.7566  20.1536  20.8952  23.1703  24.2938
    24.7869  25.8175  26.5580  27.3568  29.2269  31.1044  31.4640  33.0509
    33.0640  35.5664  36.4613  37.4015  38.4247  38.9127  39.6433  39.8233

          k = 0.5833-0.2500 0.9167 (  1611 PWs)   bands (ev):

   -10.8771  -8.4141  -6.8118  -5.9659  -0.4052   0.5761   1.5514   5.1495
     6.2736   7.0096   8.3504  10.4959  11.7230  14.0818  15.1299  15.8483
    16.0046  17.1083  18.1603  18.3480  20.6652  21.6905  22.7532  23.1853
    23.6889  24.1031  25.5843  25.8619  27.8984  29.5412  31.9457  34.1534
    34.4071  36.2728  36.5951  37.5563  38.1023  39.2084  40.0239  40.7139

          k = 0.5000-0.1667 0.8333 (  1610 PWs)   bands (ev):

    -9.8445  -9.6426  -6.6111  -6.3680  -0.3531   0.4612   2.8847   3.6922
     6.1857   7.0296   9.6807   9.9705  12.8095  13.3564  15.4461  15.8718
    16.7544  16.7942  18.7708  19.3851  19.9664  20.4256  21.1802  22.7719
    24.1590  24.3641  25.5236  26.0628  26.2680  28.6340  32.1740  34.9776
    35.5227  35.8491  36.4160  37.0616  38.0902  38.9681  40.2171  41.8310

          k = 0.6667-0.1667 1.0000 (  1618 PWs)   bands (ev):

   -10.5679  -7.4609  -7.2945  -7.1356  -0.7836  -0.7416   2.5824   5.6224
     7.7311   8.8875   9.6128   9.7908  11.3711  12.9890  14.6411  15.0895
    15.7261  15.9413  16.9201  19.0156  20.5008  21.6956  21.8852  23.2525
    24.2242  24.6499  26.0136  26.3779  27.6347  31.1725  31.7522  33.4200
    33.5865  35.6659  36.6201  38.3934  38.4895  38.8255  39.4773  40.8329

          k = 0.5833-0.0833 0.9167 (  1615 PWs)   bands (ev):

    -9.5182  -8.6861  -7.8701  -7.0449  -0.5608   0.8931   2.1667   3.6154
     7.9552   9.1000  10.1642  10.5360  11.8950  12.6292  13.5972  14.6049
    16.8261  17.9114  18.8601  19.1278  20.2178  20.4080  21.0812  22.3027
    22.6502  24.5545  24.7804  25.9251  27.7448  29.4126  31.9393  33.8933
    34.6445  35.8793  36.9870  38.0208  39.0909  39.9602  40.5091  41.6549

          k = 0.5000 0.0000 0.8333 (  1612 PWs)   bands (ev):

    -9.8897  -8.2593  -8.2286  -6.6111  -0.2152   1.3486   1.7743   3.3214
     7.5403   8.0260   9.7922  10.2516  11.8976  13.6631  14.3328  15.1869
    17.3401  17.5318  18.0872  19.9113  19.9751  20.3572  21.5319  22.5401
    22.7710  23.9664  24.9563  25.4517  27.0014  30.3762  31.1517  33.9115
    35.6747  36.1035  36.9465  37.3381  39.0253  40.3931  40.5942  41.6006

          k =-0.3333-1.0000 0.0000 (  1618 PWs)   bands (ev):

    -9.0711  -9.0711  -7.4227  -7.4227  -0.8845  -0.8845   3.9999   3.9999
     9.3815   9.3815  10.8100  10.8100  11.9260  11.9260  13.1873  13.1873
    16.5383  16.5383  18.7776  18.7776  19.3635  19.3635  21.7950  21.7950
    25.1987  25.1987  25.8982  25.8982  29.4863  29.4863  32.1887  32.1887
    34.2586  34.2586  37.3764  37.3764  38.7342  38.7342  40.9455  40.9455

          k =-0.5000-1.0000 0.0000 (  1628 PWs)   bands (ev):

    -8.5308  -8.5308  -8.2255  -8.2255   0.8256   0.8256   2.0528   2.0528
     9.5223   9.5223  11.1554  11.1554  11.3315  11.3315  12.9426  12.9426
    18.9227  18.9227  19.3867  19.3867  20.2101  20.2101  21.6690  21.6690
    22.0622  22.0622  24.5813  24.5813  29.5822  29.5822  31.8729  31.8729
    36.1530  36.1530  38.0214  38.0214  40.1349  40.1349  41.2304  41.2304

     the Fermi energy is    40.1255 ev

     Writing output data file Si.save

     init_run     :      0.14s CPU      0.16s WALL (       1 calls)
     electrons    :    147.26s CPU    148.46s WALL (       1 calls)

     Called by init_run:
     wfcinit      :      0.00s CPU      0.00s WALL (       1 calls)
     potinit      :      0.04s CPU      0.04s WALL (       1 calls)

     Called by electrons:
     c_bands      :    146.85s CPU    148.04s WALL (       1 calls)
     v_of_rho     :      0.03s CPU      0.03s WALL (       1 calls)

     Called by c_bands:
     init_us_2    :      0.08s CPU      0.09s WALL (      72 calls)
     cegterg      :    139.28s CPU    140.35s WALL (     126 calls)

     Called by *egterg:
     h_psi        :     86.74s CPU     87.41s WALL (    1916 calls)
     g_psi        :      0.23s CPU      0.23s WALL (    1718 calls)
     cdiaghg      :     13.13s CPU     13.16s WALL (    1790 calls)

     Called by h_psi:
     add_vuspsi   :      2.37s CPU      2.38s WALL (    1916 calls)

     General routines
     calbec       :      2.56s CPU      2.57s WALL (    1916 calls)
     fft          :      0.02s CPU      0.02s WALL (      10 calls)
     fftw         :     77.81s CPU     78.43s WALL (   80418 calls)
     davcio       :      0.01s CPU      0.06s WALL (      72 calls)

     Parallel routines
     fft_scatter  :      1.87s CPU      1.87s WALL (   80428 calls)

     PWSCF        :  2m29.17s CPU     2m30.47s WALL


   This run was terminated on:  22:44:17  13Feb2023            

=------------------------------------------------------------------------------=
   JOB DONE.
=------------------------------------------------------------------------------=
