
     Program PWSCF v.5.1 starts on 13Feb2023 at 22:40:32 

     This program is part of the open-source Quantum ESPRESSO suite
     for quantum simulation of materials; please cite
         "P. Giannozzi et al., J. Phys.:Condens. Matter 21 395502 (2009);
          URL http://www.quantum-espresso.org", 
     in publications or presentations arising from this work. More details at
     http://www.quantum-espresso.org/quote

     Parallel version (MPI), running on     1 processors
     Waiting for input...
     Reading input from standard input

     Current dimensions of program PWSCF are:
     Max number of different atomic species (ntypx) = 10
     Max number of k-points (npk) =  40000
     Max angular momentum in pseudopotentials (lmaxx) =  3
               file Si.pbe-mt_fhi.UPF: wavefunction(s)  4f renormalized

     Subspace diagonalization in iterative solution of the eigenvalue problem:
     a serial algorithm will be used


     G-vector sticks info
     --------------------
     sticks:   dense  smooth     PW     G-vecs:    dense   smooth      PW
     Sum         733     733    211                12939    12939    2109



     bravais-lattice index     =            2
     lattice parameter (alat)  =      10.2623  a.u.
     unit-cell volume          =     270.1967 (a.u.)^3
     number of atoms/cell      =            2
     number of atomic types    =            1
     number of electrons       =        78.00
     number of Kohn-Sham states=           40
     kinetic-energy cutoff     =      50.0000  Ry
     charge density cutoff     =     200.0000  Ry
     convergence threshold     =      1.6E-09
     mixing beta               =       0.3000
     number of iterations used =            8  plain     mixing
     Exchange-correlation      = PBE ( 1  4  3  4 0)

     celldm(1)=  10.262347  celldm(2)=   0.000000  celldm(3)=   0.000000
     celldm(4)=   0.000000  celldm(5)=   0.000000  celldm(6)=   0.000000

     crystal axes: (cart. coord. in units of alat)
               a(1) = (  -0.500000   0.000000   0.500000 )  
               a(2) = (   0.000000   0.500000   0.500000 )  
               a(3) = (  -0.500000   0.500000   0.000000 )  

     reciprocal axes: (cart. coord. in units 2 pi/alat)
               b(1) = ( -1.000000 -1.000000  1.000000 )  
               b(2) = (  1.000000  1.000000  1.000000 )  
               b(3) = ( -1.000000  1.000000 -1.000000 )  


     PseudoPot. # 1 for Si read from file:
     /home/acedemo/psudo/Si.pbe-mt_fhi.UPF
     MD5 check sum: 259057c2adf9952f9ced37ae3d9e311d
     Pseudo is Norm-conserving, Zval =  4.0
     Generated using FHI98PP, converted with fhi2upf.x v.5.0.2
     Using radial grid of  495 points,  3 beta functions with: 
                l(1) =   0
                l(2) =   1
                l(3) =   3

     atomic species   valence    mass     pseudopotential
        Si             4.00    28.08550     Si( 1.00)

     48 Sym. Ops., with inversion, found (24 have fractional translation)



   Cartesian axes

     site n.     atom                  positions (alat units)
         1           Si  tau(   1) = (   0.0000000   0.0000000   0.0000000  )
         2           Si  tau(   2) = (   0.2500000   0.2500000   0.2500000  )

     number of k points=    10  Marzari-Vanderbilt smearing, width (Ry)=  0.0500
                       cart. coord. in units 2pi/alat
        k(    1) = (   0.0000000   0.0000000   0.0000000), wk =   0.0160000
        k(    2) = (  -0.2000000   0.2000000  -0.2000000), wk =   0.1280000
        k(    3) = (  -0.4000000   0.4000000  -0.4000000), wk =   0.1280000
        k(    4) = (   0.0000000   0.4000000   0.0000000), wk =   0.0960000
        k(    5) = (  -0.2000000   0.6000000  -0.2000000), wk =   0.3840000
        k(    6) = (   0.6000000  -0.2000000   0.6000000), wk =   0.3840000
        k(    7) = (   0.4000000   0.0000000   0.4000000), wk =   0.1920000
        k(    8) = (   0.0000000   0.8000000   0.0000000), wk =   0.0960000
        k(    9) = (   0.8000000   0.0000000   0.8000000), wk =   0.1920000
        k(   10) = (   0.6000000  -0.2000000   1.0000000), wk =   0.3840000

     Dense  grid:    12939 G-vectors     FFT dimensions: (  36,  36,  36)

     Largest allocated arrays     est. size (Mb)     dimensions
        Kohn-Sham Wavefunctions         1.00 Mb     (    1639,   40)
        NL pseudopotentials             0.55 Mb     (    1639,   22)
        Each V/rho on FFT grid          0.71 Mb     (   46656)
        Each G-vector array             0.10 Mb     (   12939)
        G-vector shells                 0.00 Mb     (     180)
     Largest temporary arrays     est. size (Mb)     dimensions
        Auxiliary wavefunctions         4.00 Mb     (    1639,  160)
        Each subspace H/S matrix        0.39 Mb     (     160,  160)
        Each <psi_i|beta_j> matrix      0.01 Mb     (      22,   40)
        Arrays for rho mixing           5.70 Mb     (   46656,    8)

     Initial potential from superposition of free atoms

     starting charge    7.99859, renormalised to   78.00000
     Starting wfc are   32 randomized atomic wfcs +    8 random wfc

     total cpu time spent up to now is        1.5 secs

     per-process dynamical memory:    24.2 Mb

     Self-consistent Calculation

     iteration #  1     ecut=    50.00 Ry     beta=0.30
     Davidson diagonalization with overlap
     ethr =  1.00E-02,  avg # of iterations =  8.6

     total cpu time spent up to now is       14.2 secs

     total energy              =     177.60273431 Ry
     Harris-Foulkes estimate   =     -32.80161759 Ry
     estimated scf accuracy    <     449.95479147 Ry

     iteration #  2     ecut=    50.00 Ry     beta=0.30
     Davidson diagonalization with overlap
     ethr =  1.00E-02,  avg # of iterations =  4.0

     total cpu time spent up to now is       21.9 secs

     total energy              =     111.41966630 Ry
     Harris-Foulkes estimate   =     109.06872435 Ry
     estimated scf accuracy    <       4.73910050 Ry

     iteration #  3     ecut=    50.00 Ry     beta=0.30
     Davidson diagonalization with overlap
     ethr =  6.08E-03,  avg # of iterations =  2.7

     total cpu time spent up to now is       27.8 secs

     total energy              =     110.58713469 Ry
     Harris-Foulkes estimate   =     110.40394923 Ry
     estimated scf accuracy    <       0.50744455 Ry

     iteration #  4     ecut=    50.00 Ry     beta=0.30
     Davidson diagonalization with overlap
     ethr =  6.51E-04,  avg # of iterations =  2.8

     total cpu time spent up to now is       32.1 secs

     total energy              =     110.61320631 Ry
     Harris-Foulkes estimate   =     110.54466802 Ry
     estimated scf accuracy    <       0.11280089 Ry

     iteration #  5     ecut=    50.00 Ry     beta=0.30
     Davidson diagonalization with overlap
     ethr =  1.45E-04,  avg # of iterations =  3.1

     total cpu time spent up to now is       37.1 secs

     total energy              =     110.59874453 Ry
     Harris-Foulkes estimate   =     110.59356048 Ry
     estimated scf accuracy    <       0.00968363 Ry

     iteration #  6     ecut=    50.00 Ry     beta=0.30
     Davidson diagonalization with overlap
     ethr =  1.24E-05,  avg # of iterations =  3.1

     total cpu time spent up to now is       42.6 secs

     total energy              =     110.59646984 Ry
     Harris-Foulkes estimate   =     110.59621308 Ry
     estimated scf accuracy    <       0.00072821 Ry

     iteration #  7     ecut=    50.00 Ry     beta=0.30
     Davidson diagonalization with overlap
     ethr =  9.34E-07,  avg # of iterations =  2.9

     total cpu time spent up to now is       46.5 secs

     total energy              =     110.59526946 Ry
     Harris-Foulkes estimate   =     110.59522824 Ry
     estimated scf accuracy    <       0.00021916 Ry

     iteration #  8     ecut=    50.00 Ry     beta=0.30
     Davidson diagonalization with overlap
     ethr =  2.81E-07,  avg # of iterations =  1.5

     total cpu time spent up to now is       49.3 secs

     total energy              =     110.59531986 Ry
     Harris-Foulkes estimate   =     110.59526501 Ry
     estimated scf accuracy    <       0.00011671 Ry

     iteration #  9     ecut=    50.00 Ry     beta=0.30
     Davidson diagonalization with overlap
     ethr =  1.50E-07,  avg # of iterations =  2.9

     total cpu time spent up to now is       53.3 secs

     total energy              =     110.59529767 Ry
     Harris-Foulkes estimate   =     110.59529777 Ry
     estimated scf accuracy    <       0.00000059 Ry

     iteration # 10     ecut=    50.00 Ry     beta=0.30
     Davidson diagonalization with overlap
     ethr =  7.57E-10,  avg # of iterations =  3.5

     total cpu time spent up to now is       57.4 secs

     total energy              =     110.59529794 Ry
     Harris-Foulkes estimate   =     110.59529750 Ry
     estimated scf accuracy    <       0.00000106 Ry

     iteration # 11     ecut=    50.00 Ry     beta=0.30
     Davidson diagonalization with overlap
     ethr =  7.57E-10,  avg # of iterations =  2.8

     total cpu time spent up to now is       61.7 secs

     total energy              =     110.59529777 Ry
     Harris-Foulkes estimate   =     110.59529777 Ry
     estimated scf accuracy    <          6.9E-09 Ry

     iteration # 12     ecut=    50.00 Ry     beta=0.30
     Davidson diagonalization with overlap
     ethr =  8.79E-12,  avg # of iterations =  2.8

     total cpu time spent up to now is       64.8 secs

     total energy              =     110.59529778 Ry
     Harris-Foulkes estimate   =     110.59529777 Ry
     estimated scf accuracy    <          2.6E-09 Ry

     iteration # 13     ecut=    50.00 Ry     beta=0.30
     Davidson diagonalization with overlap
     ethr =  3.37E-12,  avg # of iterations =  3.1

     total cpu time spent up to now is       68.7 secs

     End of self-consistent calculation

          k = 0.0000 0.0000 0.0000 (  1639 PWs)   bands (ev):

   -14.5726  -0.6770  -0.6770  -0.6770  -0.3472  -0.3472  -0.3472   2.2569
     2.3337   4.3409   4.3409   5.1537   5.1537   5.1537   9.0482  21.7966
    21.7966  21.7966  23.2963  23.2963  24.5504  24.5504  24.5504  25.4068
    25.4068  25.4068  31.1223  34.4184  34.4184  34.4184  35.8294  35.8294
    36.3818  36.3818  38.2967  38.2967  38.2967  40.1687  40.1687  40.1687

          k =-0.2000 0.2000-0.2000 (  1606 PWs)   bands (ev):

   -13.9721  -5.1478  -1.8726  -1.8726   0.0270   0.9792   0.9792   2.4756
     2.4955   2.4955   4.6208   7.2351   9.1923   9.1923  11.7429  16.6018
    16.6018  17.9192  23.0589  23.0589  25.1654  25.1654  26.0006  26.1087
    29.2674  29.5142  29.5142  31.5561  31.5561  32.3239  32.3239  33.5748
    33.6677  33.7243  33.7243  35.3523  36.8967  36.8967  38.0058  39.7839

          k =-0.4000 0.4000-0.4000 (  1616 PWs)   bands (ev):

   -12.1793  -9.2092  -2.2171  -2.2171  -0.6827  -0.6827  -0.0721   0.8345
     5.8443   5.8443   7.7557  10.6967  10.6967  12.7797  14.4321  14.7872
    14.7872  16.7380  21.5846  21.5846  21.6959  23.8817  24.4772  24.4772
    26.6519  26.6519  27.6972  28.9740  28.9740  29.4170  29.4170  30.0112
    31.2153  32.5085  36.2790  36.2790  38.3663  38.8934  38.8934  39.9001

          k = 0.0000 0.4000 0.0000 (  1607 PWs)   bands (ev):

   -13.7722  -3.5316  -3.5316  -2.7583  -2.3791  -1.7158   3.6706   3.6706
     5.1468   5.6912   5.7805   6.2848   6.2848   8.3226  14.2026  16.4867
    16.4867  17.1556  19.4554  22.5365  25.0796  25.5835  25.5835  27.6663
    27.6663  28.4726  29.7682  31.6428  31.7870  31.7870  32.1048  34.3274
    34.9676  34.9676  35.3019  35.8363  36.7163  37.0312  37.0312  38.1592

          k =-0.2000 0.6000-0.2000 (  1619 PWs)   bands (ev):

   -12.3771  -7.4585  -4.5920  -4.1084  -2.9020   0.3184   2.7194   3.7601
     4.6546   7.4541   8.8331  10.4476  10.9822  11.6016  12.1448  12.4853
    18.0281  18.2837  19.1411  19.3546  20.6389  23.5455  23.6899  25.1340
    26.7046  26.7666  27.4210  27.7346  29.2510  31.1141  32.0235  32.9202
    33.4661  33.7255  34.9730  36.5788  38.4584  38.7052  39.7228  40.6063

          k = 0.6000-0.2000 0.6000 (  1596 PWs)   bands (ev):

   -10.7989  -9.7924  -5.9165  -3.5547  -2.3507   1.4367   2.4590   4.6593
     4.9445   5.2714   7.0524  11.9286  12.2150  13.1624  14.3406  17.1457
    17.2726  17.7747  18.9333  20.0482  20.3061  20.9304  21.6807  21.9198
    22.8251  25.2019  27.6978  28.0166  28.0257  29.3224  31.0579  32.5029
    33.8877  34.6191  35.0320  36.6157  37.7655  38.1360  41.5718  42.6032

          k = 0.4000 0.0000 0.4000 (  1610 PWs)   bands (ev):

   -12.9742  -6.1171  -6.0964  -1.9402  -0.6661   1.1998   1.3993   2.1560
     2.4909   6.4209   7.2231   9.7315  10.0551  10.6375  13.9744  15.5257
    16.9513  17.5199  18.1721  20.0307  24.0382  24.4583  25.0260  25.7050
    26.1140  26.5005  29.0945  29.5393  31.1832  31.6539  32.2815  32.7060
    33.2889  33.7043  33.7440  34.0531  35.2590  37.8888  38.9330  39.1936

          k = 0.0000 0.8000 0.0000 (  1624 PWs)   bands (ev):

   -11.3843  -7.4622  -5.0574  -5.0574  -3.8809  -3.8734   7.2847   7.2847
     7.5622  10.0444  10.6745  10.6745  10.8868  11.5775  11.6540  11.6540
    11.9407  15.5203  18.7572  18.7572  19.0317  20.1349  23.3217  25.0393
    27.6268  27.6268  27.7428  30.2793  31.0813  31.0813  32.7977  32.9352
    34.1172  34.5280  35.4762  35.4762  35.6705  35.6827  35.6827  37.6319

          k = 0.8000 0.0000 0.8000 (  1622 PWs)   bands (ev):

    -9.2311  -9.2165  -8.2128  -4.8688  -3.6851  -0.3950   5.8268   5.8328
     6.7867   6.9633  11.0917  11.5816  12.7009  13.2398  14.1688  14.3593
    15.1445  15.9318  16.4942  17.1003  18.8422  19.6658  21.7839  22.3446
    26.5638  27.0674  27.4328  28.9100  29.2470  30.0503  30.8514  31.1650
    31.9499  32.3512  36.5639  37.9242  37.9430  39.2983  41.6864  41.7732

          k = 0.6000-0.2000 1.0000 (  1616 PWs)   bands (ev):

   -10.5960  -7.6774  -7.6411  -6.6494  -0.0411   0.1592   1.4852   4.9725
     7.3202   7.9711   9.3311   9.6092  11.9222  13.4852  15.1955  15.4227
    16.0767  16.3443  17.7289  19.2852  19.9440  22.1625  22.5928  22.8828
    23.9818  24.0636  24.8521  25.4103  27.3403  30.9206  31.5627  33.9089
    34.3001  36.2521  36.9335  38.2563  38.9061  39.5045  39.6450  40.5207

     the Fermi energy is    40.0947 ev

!    total energy              =     110.59529777 Ry
     Harris-Foulkes estimate   =     110.59529777 Ry
     estimated scf accuracy    <          1.3E-10 Ry

     The total energy is the sum of the following terms:

     one-electron contribution =     209.98606899 Ry
     hartree contribution      =       3.51415026 Ry
     xc contribution           =     -86.11465865 Ry
     ewald contribution        =     -16.79708774 Ry
     smearing contrib. (-TS)   =       0.00682491 Ry

     convergence has been achieved in  13 iterations

     Forces acting on atoms (Ry/au):

     atom    1 type  1   force =     0.00000000    0.00000000    0.00000000
     atom    2 type  1   force =    -0.00000000   -0.00000000   -0.00000000

     Total force =     0.000000     Total SCF correction =     0.000000


     entering subroutine stress ...

          total   stress  (Ry/bohr**3)                   (kbar)     P=63275.81
   0.43014031   0.00000000   0.00000000      63275.81      0.00      0.00
   0.00000000   0.43014031  -0.00000000          0.00  63275.81     -0.00
   0.00000000  -0.00000000   0.43014031          0.00     -0.00  63275.81


     Writing output data file Si.save

     init_run     :      1.43s CPU      1.49s WALL (       1 calls)
     electrons    :     64.29s CPU     67.15s WALL (       1 calls)
     forces       :      0.13s CPU      0.13s WALL (       1 calls)
     stress       :      0.61s CPU      0.62s WALL (       1 calls)

     Called by init_run:
     wfcinit      :      1.20s CPU      1.21s WALL (       1 calls)
     potinit      :      0.05s CPU      0.05s WALL (       1 calls)

     Called by electrons:
     c_bands      :     57.62s CPU     60.18s WALL (      13 calls)
     sum_band     :      6.10s CPU      6.40s WALL (      13 calls)
     v_of_rho     :      0.56s CPU      0.56s WALL (      14 calls)
     mix_rho      :      0.04s CPU      0.04s WALL (      13 calls)

     Called by c_bands:
     init_us_2    :      0.41s CPU      0.43s WALL (     290 calls)
     cegterg      :     57.27s CPU     59.81s WALL (     130 calls)

     Called by *egterg:
     h_psi        :     38.76s CPU     40.24s WALL (     578 calls)
     g_psi        :      0.08s CPU      0.09s WALL (     438 calls)
     cdiaghg      :      4.07s CPU      4.22s WALL (     568 calls)

     Called by h_psi:
     add_vuspsi   :      1.08s CPU      1.11s WALL (     578 calls)

     General routines
     calbec       :      1.22s CPU      1.25s WALL (     598 calls)
     fft          :      0.22s CPU      0.22s WALL (     161 calls)
     fftw         :     39.85s CPU     41.47s WALL (   36544 calls)
     davcio       :      0.00s CPU      0.01s WALL (      10 calls)

     Parallel routines
     fft_scatter  :      1.01s CPU      1.03s WALL (   36705 calls)

     PWSCF        :  1m 6.56s CPU     1m 9.51s WALL


   This run was terminated on:  22:41:42  13Feb2023            

=------------------------------------------------------------------------------=
   JOB DONE.
=------------------------------------------------------------------------------=
