
     Program PWSCF v.5.1 starts on 13Feb2023 at 14:43:18 

     This program is part of the open-source Quantum ESPRESSO suite
     for quantum simulation of materials; please cite
         "P. Giannozzi et al., J. Phys.:Condens. Matter 21 395502 (2009);
          URL http://www.quantum-espresso.org", 
     in publications or presentations arising from this work. More details at
     http://www.quantum-espresso.org/quote

     Parallel version (MPI), running on     1 processors
     Waiting for input...
     Reading input from standard input
Warning: card    SI   -0.50    0.00    0.50 ignored
Warning: card    SI   -0.25    0.25    0.75 ignored

     Current dimensions of program PWSCF are:
     Max number of different atomic species (ntypx) = 10
     Max number of k-points (npk) =  40000
     Max angular momentum in pseudopotentials (lmaxx) =  3

     Atomic positions and unit cell read from directory:
     ./out/Si.save/

               file Si.pbe-mt_fhi.UPF: wavefunction(s)  4f renormalized
               file B.pbe-mt_fhi.UPF: wavefunction(s)  4f renormalized

     Subspace diagonalization in iterative solution of the eigenvalue problem:
     a serial algorithm will be used


     G-vector sticks info
     --------------------
     sticks:   dense  smooth     PW     G-vecs:    dense   smooth      PW
     Sum         733     733    211                12939    12939    2109



     bravais-lattice index     =            2
     lattice parameter (alat)  =      10.2623  a.u.
     unit-cell volume          =     270.1967 (a.u.)^3
     number of atoms/cell      =            2
     number of atomic types    =            2
     number of electrons       =         6.00
     number of Kohn-Sham states=           12
     kinetic-energy cutoff     =      50.0000  Ry
     charge density cutoff     =     200.0000  Ry
     Exchange-correlation      = PBE ( 1  4  3  4 0)

     celldm(1)=  10.262347  celldm(2)=   0.000000  celldm(3)=   0.000000
     celldm(4)=   0.000000  celldm(5)=   0.000000  celldm(6)=   0.000000

     crystal axes: (cart. coord. in units of alat)
               a(1) = (  -0.500000   0.000000   0.500000 )  
               a(2) = (   0.000000   0.500000   0.500000 )  
               a(3) = (  -0.500000   0.500000   0.000000 )  

     reciprocal axes: (cart. coord. in units 2 pi/alat)
               b(1) = ( -1.000000 -1.000000  1.000000 )  
               b(2) = (  1.000000  1.000000  1.000000 )  
               b(3) = ( -1.000000  1.000000 -1.000000 )  


     PseudoPot. # 1 for Si read from file:
     /home/acedemo/psudo/Si.pbe-mt_fhi.UPF
     MD5 check sum: 259057c2adf9952f9ced37ae3d9e311d
     Pseudo is Norm-conserving, Zval =  4.0
     Generated using FHI98PP, converted with fhi2upf.x v.5.0.2
     Using radial grid of  495 points,  3 beta functions with: 
                l(1) =   0
                l(2) =   1
                l(3) =   3

     PseudoPot. # 2 for  B read from file:
     /home/acedemo/psudo/B.pbe-mt_fhi.UPF
     MD5 check sum: 3ba04917d1d3a8de85490f79a9c37fe5
     Pseudo is Norm-conserving + core correction, Zval =  3.0
     Generated using FHI98PP, converted with fhi2upf.x v.5.0.2
     Using radial grid of  453 points,  3 beta functions with: 
                l(1) =   0
                l(2) =   1
                l(3) =   3

     atomic species   valence    mass     pseudopotential
        Si             4.00    28.08550     Si( 1.00)
        B              3.00    10.81100      B( 1.00)

     48 Sym. Ops., with inversion, found (24 have fractional translation)



   Cartesian axes

     site n.     atom                  positions (alat units)
         1           B   tau(   1) = (   0.0000000   0.0000000   0.0000000  )
         2           B   tau(   2) = (   0.2500000   0.2500000   0.2500000  )

     number of k points=    51  Marzari-Vanderbilt smearing, width (Ry)=  0.0500
                       cart. coord. in units 2pi/alat
        k(    1) = (   0.5000000   0.5000000   0.5000000), wk =   0.0000000
        k(    2) = (   0.4500000   0.4500000   0.4500000), wk =   0.0014779
        k(    3) = (   0.4000000   0.4000000   0.4000000), wk =   0.0029558
        k(    4) = (   0.3500000   0.3500000   0.3500000), wk =   0.0044337
        k(    5) = (   0.3000000   0.3000000   0.3000000), wk =   0.0059116
        k(    6) = (   0.2500000   0.2500000   0.2500000), wk =   0.0073895
        k(    7) = (   0.2000000   0.2000000   0.2000000), wk =   0.0088674
        k(    8) = (   0.1500000   0.1500000   0.1500000), wk =   0.0103453
        k(    9) = (   0.1000000   0.1000000   0.1000000), wk =   0.0118232
        k(   10) = (   0.0500000   0.0500000   0.0500000), wk =   0.0133011
        k(   11) = (   0.0000000   0.0000000   0.0000000), wk =   0.0147790
        k(   12) = (   0.0000000   0.1000000   0.0000000), wk =   0.0168691
        k(   13) = (   0.0000000   0.2000000   0.0000000), wk =   0.0189591
        k(   14) = (   0.0000000   0.3000000   0.0000000), wk =   0.0210492
        k(   15) = (   0.0000000   0.4000000   0.0000000), wk =   0.0231392
        k(   16) = (   0.0000000   0.5000000   0.0000000), wk =   0.0252293
        k(   17) = (   0.0000000   0.6000000   0.0000000), wk =   0.0273194
        k(   18) = (   0.0000000   0.7000000   0.0000000), wk =   0.0294094
        k(   19) = (   0.0000000   0.8000000   0.0000000), wk =   0.0314995
        k(   20) = (   0.0000000   0.9000000   0.0000000), wk =   0.0335896
        k(   21) = (   0.0000000   1.0000000   0.0000000), wk =   0.0356796
        k(   22) = (   0.0000000   0.9750000   0.0750000), wk =   0.0370621
        k(   23) = (   0.0000000   0.9500000   0.1500000), wk =   0.0384445
        k(   24) = (  -0.0000000   0.9250000   0.2250000), wk =   0.0398270
        k(   25) = (  -0.0000000   0.9000000   0.3000000), wk =   0.0412094
        k(   26) = (   0.0000000   0.8750000   0.3750000), wk =   0.0425919
        k(   27) = (   0.0000000   0.8500000   0.4500000), wk =   0.0439743
        k(   28) = (   0.0000000   0.8250000   0.5250000), wk =   0.0453568
        k(   29) = (  -0.0000000   0.8000000   0.6000000), wk =   0.0467392
        k(   30) = (  -0.0000000   0.7750000   0.6750000), wk =   0.0481217
        k(   31) = (   0.0000000   0.7500000   0.7500000), wk =   0.0495041
        k(   32) = (   0.0000000   0.7250000   0.7750000), wk =   0.0500266
        k(   33) = (   0.0000000   0.7000000   0.8000000), wk =   0.0505491
        k(   34) = (   0.0000000   0.6750000   0.8250000), wk =   0.0510717
        k(   35) = (   0.0000000   0.6500000   0.8500000), wk =   0.0515942
        k(   36) = (   0.0000000   0.6250000   0.8750000), wk =   0.0521167
        k(   37) = (   0.0000000   0.6000000   0.9000000), wk =   0.0526392
        k(   38) = (   0.0000000   0.5750000   0.9250000), wk =   0.0531617
        k(   39) = (   0.0000000   0.5500000   0.9500000), wk =   0.0536842
        k(   40) = (   0.0000000   0.5250000   0.9750000), wk =   0.0542067
        k(   41) = (   0.0000000   0.5000000   1.0000000), wk =   0.0547293
        k(   42) = (   0.0000000   0.4500000   0.9000000), wk =   0.0574942
        k(   43) = (  -0.0000000   0.4000000   0.8000000), wk =   0.0602591
        k(   44) = (  -0.0000000   0.3500000   0.7000000), wk =   0.0630239
        k(   45) = (  -0.0000000   0.3000000   0.6000000), wk =   0.0657888
        k(   46) = (   0.0000000   0.2500000   0.5000000), wk =   0.0685537
        k(   47) = (   0.0000000   0.2000000   0.4000000), wk =   0.0713186
        k(   48) = (   0.0000000   0.1500000   0.3000000), wk =   0.0740835
        k(   49) = (  -0.0000000   0.1000000   0.2000000), wk =   0.0768484
        k(   50) = (  -0.0000000   0.0500000   0.1000000), wk =   0.0796133
        k(   51) = (   0.0000000   0.0000000   0.0000000), wk =   0.0823782

     Dense  grid:    12939 G-vectors     FFT dimensions: (  36,  36,  36)

     Largest allocated arrays     est. size (Mb)     dimensions
        Kohn-Sham Wavefunctions         0.30 Mb     (    1639,   12)
        NL pseudopotentials             0.55 Mb     (    1639,   22)
        Each V/rho on FFT grid          0.71 Mb     (   46656)
        Each G-vector array             0.10 Mb     (   12939)
        G-vector shells                 0.00 Mb     (     180)
     Largest temporary arrays     est. size (Mb)     dimensions
        Auxiliary wavefunctions         1.20 Mb     (    1639,   48)
        Each subspace H/S matrix        0.04 Mb     (      48,   48)
        Each <psi_i|beta_j> matrix      0.00 Mb     (      22,   12)

     Check: negative/imaginary core charge=   -0.000071    0.000000

     The potential is recalculated from file :
     ./out/Si.save/charge-density.dat

     Starting wfc are   32 randomized atomic wfcs

     Band Structure Calculation
     Davidson diagonalization with overlap

     ethr =  2.67E-11,  avg # of iterations = 14.2

     total cpu time spent up to now is       25.1 secs

     End of band structure calculation

          k = 0.5000 0.5000 0.5000 (  1622 PWs)   bands (ev):

    -6.0583  -3.6760   0.9670   0.9670   3.2681   5.8836   5.8836   8.3857
    12.0421  12.6996  14.3425  14.3425

          k = 0.4500 0.4500 0.4500 (  1610 PWs)   bands (ev):

    -6.1672  -3.5180   0.9844   0.9844   3.2797   5.8687   5.8687   8.2926
    11.9253  12.8920  14.2436  14.2436

          k = 0.4000 0.4000 0.4000 (  1616 PWs)   bands (ev):

    -6.4291  -3.1097   1.0361   1.0361   3.3139   5.8218   5.8218   8.0273
    11.7589  13.2572  14.0113  14.0113

          k = 0.3500 0.3500 0.3500 (  1610 PWs)   bands (ev):

    -6.7453  -2.5523   1.1207   1.1207   3.3686   5.7373   5.7373   7.6263
    11.6373  13.6282  13.7639  13.7639

          k = 0.3000 0.3000 0.3000 (  1615 PWs)   bands (ev):

    -7.0590  -1.9065   1.2354   1.2354   3.4394   5.6101   5.6101   7.1334
    11.5315  13.5912  13.5912  13.9516

          k = 0.2500 0.2500 0.2500 (  1618 PWs)   bands (ev):

    -7.3433  -1.2057   1.3755   1.3755   3.5180   5.4401   5.4401   6.5869
    11.3879  13.5444  13.5444  14.2394

          k = 0.2000 0.2000 0.2000 (  1606 PWs)   bands (ev):

    -7.5853  -0.4720   1.5332   1.5332   3.5894   5.2369   5.2369   6.0186
    11.1745  13.6463  13.6463  14.5454

          k = 0.1500 0.1500 0.1500 (  1600 PWs)   bands (ev):

    -7.7781   0.2736   1.6960   1.6960   3.6219   5.0209   5.0209   5.4651
    10.9091  13.9005  13.9005  14.9125

          k = 0.1000 0.1000 0.1000 (  1606 PWs)   bands (ev):

    -7.9179   1.0029   1.8445   1.8445   3.5519   4.8228   4.8228   4.9951
    10.6495  14.2971  14.2971  15.3334

          k = 0.0500 0.0500 0.0500 (  1630 PWs)   bands (ev):

    -8.0026   1.6547   1.9524   1.9524   3.3127   4.6801   4.6801   4.7101
    10.4615  14.8073  14.8073  15.7272

          k = 0.0000 0.0000 0.0000 (  1639 PWs)   bands (ev):

    -8.0309   1.9925   1.9925   1.9925   3.1028   4.6275   4.6275   4.6275
    10.3930  15.2113  15.2113  15.9072

          k = 0.0000 0.1000 0.0000 (  1627 PWs)   bands (ev):

    -7.9931   1.6567   1.8790   1.8790   3.4041   4.5830   4.7670   4.7670
    10.4847  14.3182  15.2615  15.9946

          k = 0.0000 0.2000 0.0000 (  1599 PWs)   bands (ev):

    -7.8800   1.0334   1.5984   1.5984   3.9151   4.4623   5.1248   5.1248
    10.7412  13.1863  15.4122  16.2536

          k = 0.0000 0.3000 0.0000 (  1607 PWs)   bands (ev):

    -7.6928   0.3455   1.2481   1.2481   4.2965   4.3863   5.6009   5.6009
    11.1138  12.1930  15.6633  16.6727

          k = 0.0000 0.4000 0.0000 (  1607 PWs)   bands (ev):

    -7.4327  -0.3637   0.8909   0.8909   4.1202   4.7337   6.1275   6.1275
    11.4302  11.5368  16.0147  17.2220

          k = 0.0000 0.5000 0.0000 (  1612 PWs)   bands (ev):

    -7.1024  -1.0804   0.5601   0.5601   3.9627   4.9029   6.6633   6.6633
    10.9575  11.9344  16.4665  17.8149

          k = 0.0000 0.6000 0.0000 (  1620 PWs)   bands (ev):

    -6.7048  -1.7976   0.2739   0.2739   3.8458   4.8796   7.1769   7.1769
    10.7888  12.2307  17.0184  18.1923

          k = 0.0000 0.7000 0.0000 (  1632 PWs)   bands (ev):

    -6.2441  -2.5093   0.0432   0.0432   3.7850   4.7084   7.6374   7.6374
    10.8751  12.3666  17.6704  18.0880

          k = 0.0000 0.8000 0.0000 (  1624 PWs)   bands (ev):

    -5.7255  -3.2088  -0.1256  -0.1256   3.7900   4.4661   8.0098   8.0098
    11.1295  12.3227  17.7660  17.7660

          k = 0.0000 0.9000 0.0000 (  1608 PWs)   bands (ev):

    -5.1550  -3.8884  -0.2283  -0.2283   3.8660   4.2197   8.2556   8.2556
    11.4674  12.1233  17.5001  17.5001

          k = 0.0000 1.0000 0.0000 (  1604 PWs)   bands (ev):

    -4.5400  -4.5400  -0.2628  -0.2628   4.0122   4.0122   8.3419   8.3419
    11.8189  11.8189  17.4011  17.4011

          k = 0.0000 0.9750 0.0750 (  1618 PWs)   bands (ev):

    -4.6904  -4.3759  -0.2992  -0.2946   4.0480   4.1342   8.2940   8.3029
    11.7158  11.8721  17.3030  17.3231

          k = 0.0000 0.9500 0.1500 (  1622 PWs)   bands (ev):

    -4.8203  -4.2086  -0.4042  -0.3695   4.2375   4.3910   8.1331   8.2006
    11.6071  11.8478  17.0399  17.1654

          k =-0.0000 0.9250 0.2250 (  1622 PWs)   bands (ev):

    -4.9253  -4.0523  -0.5572  -0.4482   4.5534   4.7404   7.8473   8.0521
    11.5399  11.7388  16.6945  17.0245

          k =-0.0000 0.9000 0.3000 (  1623 PWs)   bands (ev):

    -5.0033  -3.9242  -0.7302  -0.4915   4.9585   5.1248   7.4625   7.8695
    11.5448  11.5564  16.3176  16.9525

          k = 0.0000 0.8750 0.3750 (  1614 PWs)   bands (ev):

    -5.0533  -3.8400  -0.8984  -0.4708   5.4131   5.4440   7.0755   7.6638
    11.3255  11.6298  15.9258  16.9695

          k = 0.0000 0.8500 0.4500 (  1612 PWs)   bands (ev):

    -5.0756  -3.8078  -1.0432  -0.3768   5.4885   5.8713   6.9088   7.4522
    11.0785  11.7886  15.5311  17.0774

          k = 0.0000 0.8250 0.5250 (  1611 PWs)   bands (ev):

    -5.0710  -3.8242  -1.1517  -0.2246   5.1729   6.2571   7.0671   7.2824
    10.8513  12.0053  15.1601  17.2684

          k =-0.0000 0.8000 0.6000 (  1614 PWs)   bands (ev):

    -5.0404  -3.8780  -1.2153  -0.0553   4.7478   6.4111   7.2821   7.3289
    10.6816  12.2433  14.8653  17.5226

          k =-0.0000 0.7750 0.6750 (  1621 PWs)   bands (ev):

    -4.9848  -3.9559  -1.2291   0.0682   4.4033   6.2849   7.4654   7.5524
    10.6078  12.4218  14.7369  17.7893

          k = 0.0000 0.7500 0.7500 (  1624 PWs)   bands (ev):

    -4.9047  -4.0484  -1.1907   0.0769   4.2479   6.0486   7.6359   7.6926
    10.6587  12.4351  14.8730  17.9432

          k = 0.0000 0.7250 0.7750 (  1616 PWs)   bands (ev):

    -4.8999  -4.0509  -1.1871   0.0572   4.2781   6.0487   7.6240   7.6811
    10.6711  12.4116  14.9044  17.9083

          k = 0.0000 0.7000 0.8000 (  1621 PWs)   bands (ev):

    -4.8855  -4.0586  -1.1760   0.0005   4.3662   6.0489   7.5895   7.6470
    10.7073  12.3452  14.9939  17.8107

          k = 0.0000 0.6750 0.8250 (  1620 PWs)   bands (ev):

    -4.8615  -4.0720  -1.1577  -0.0867   4.5054   6.0485   7.5354   7.5917
    10.7647  12.2463  15.1299  17.6668

          k = 0.0000 0.6500 0.8500 (  1616 PWs)   bands (ev):

    -4.8279  -4.0921  -1.1323  -0.1957   4.6860   6.0464   7.4663   7.5173
    10.8395  12.1264  15.2983  17.4935

          k = 0.0000 0.6250 0.8750 (  1616 PWs)   bands (ev):

    -4.7847  -4.1200  -1.0999  -0.3170   4.8971   6.0409   7.3876   7.4272
    10.9273  11.9960  15.4861  17.3047

          k = 0.0000 0.6000 0.9000 (  1613 PWs)   bands (ev):

    -4.7321  -4.1573  -1.0607  -0.4418   5.1267   6.0299   7.3056   7.3264
    11.0236  11.8630  15.6821  17.1103

          k = 0.0000 0.5750 0.9250 (  1615 PWs)   bands (ev):

    -4.6700  -4.2054  -1.0150  -0.5625   5.3613   6.0106   7.2225   7.2262
    11.1240  11.7334  15.8772  16.9176

          k = 0.0000 0.5500 0.9500 (  1615 PWs)   bands (ev):

    -4.5985  -4.2658  -0.9633  -0.6726   5.5830   5.9802   7.1279   7.1555
    11.2244  11.6120  16.0647  16.7318

          k = 0.0000 0.5250 0.9750 (  1615 PWs)   bands (ev):

    -4.5175  -4.3395  -0.9057  -0.7673   5.7664   5.9363   7.0634   7.0983
    11.3208  11.5027  16.2394  16.5575

          k = 0.0000 0.5000 1.0000 (  1628 PWs)   bands (ev):

    -4.4274  -4.4274  -0.8429  -0.8429   5.8779   5.8779   7.0576   7.0576
    11.4096  11.4096  16.3983  16.3983

          k = 0.0000 0.4500 0.9000 (  1616 PWs)   bands (ev):

    -4.8598  -4.0118  -1.0006  -0.5515   5.6225   5.8549   6.9500   7.3688
    11.1702  11.6754  15.8428  16.8898

          k =-0.0000 0.4000 0.8000 (  1616 PWs)   bands (ev):

    -5.3704  -3.5244  -0.9574  -0.2121   5.3830   5.5692   6.8917   7.6101
    11.2136  11.7625  15.4164  17.1892

          k =-0.0000 0.3500 0.7000 (  1618 PWs)   bands (ev):

    -5.9068  -2.9659  -0.7474   0.1541   5.1587   5.2629   6.8715   7.4836
    11.5114  11.6827  15.1044  17.3901

          k =-0.0000 0.3000 0.6000 (  1609 PWs)   bands (ev):

    -6.4241  -2.3380  -0.4108   0.5255   4.9409   5.0000   6.8409   7.0923
    11.5529  11.7871  14.8414  17.6054

          k = 0.0000 0.2500 0.5000 (  1610 PWs)   bands (ev):

    -6.8918  -1.6441   0.0175   0.8836   4.7161   4.8018   6.5868   6.7120
    11.5441  11.8176  14.6130  17.7365

          k = 0.0000 0.2000 0.4000 (  1613 PWs)   bands (ev):

    -7.2912  -0.8901   0.5041   1.2152   4.4705   4.6744   6.0539   6.3973
    11.5896  11.8041  14.4757  17.3661

          k = 0.0000 0.1500 0.3000 (  1607 PWs)   bands (ev):

    -7.6106  -0.0873   1.0109   1.5105   4.1923   4.6134   5.5424   5.8898
    11.2106  12.3883  14.4926  16.8147

          k =-0.0000 0.1000 0.2000 (  1600 PWs)   bands (ev):

    -7.8428   0.7415   1.4858   1.7565   3.8598   4.6035   5.0917   5.2940
    10.8098  13.2573  14.6836  16.3391

          k =-0.0000 0.0500 0.1000 (  1623 PWs)   bands (ev):

    -7.9837   1.5348   1.8495   1.9287   3.4325   4.6180   4.7575   4.8081
    10.5063  14.3188  14.9986  16.0164

          k = 0.0000 0.0000 0.0000 (  1639 PWs)   bands (ev):

    -8.0309   1.9925   1.9925   1.9925   3.1028   4.6275   4.6275   4.6275
    10.3930  15.2113  15.2113  15.9072

     Writing output data file Si.save

     init_run     :      0.20s CPU      0.20s WALL (       1 calls)
     electrons    :     22.72s CPU     23.72s WALL (       1 calls)

     Called by init_run:
     wfcinit      :      0.00s CPU      0.00s WALL (       1 calls)
     potinit      :      0.04s CPU      0.04s WALL (       1 calls)

     Called by electrons:
     c_bands      :     22.72s CPU     23.72s WALL (       1 calls)
     v_of_rho     :      0.03s CPU      0.03s WALL (       1 calls)

     Called by c_bands:
     init_us_2    :      0.08s CPU      0.08s WALL (      51 calls)
     cegterg      :     17.72s CPU     18.52s WALL (      53 calls)

     Called by *egterg:
     h_psi        :     18.37s CPU     19.20s WALL (     829 calls)
     g_psi        :      0.04s CPU      0.04s WALL (     725 calls)
     cdiaghg      :      0.50s CPU      0.53s WALL (     776 calls)

     Called by h_psi:
     add_vuspsi   :      0.54s CPU      0.55s WALL (     829 calls)

     General routines
     calbec       :      0.63s CPU      0.65s WALL (     829 calls)
     fft          :      0.02s CPU      0.02s WALL (      11 calls)
     fftw         :     16.16s CPU     16.90s WALL (   14816 calls)
     davcio       :      0.01s CPU      0.01s WALL (      51 calls)

     Parallel routines
     fft_scatter  :      0.42s CPU      0.42s WALL (   14827 calls)

     PWSCF        :    24.09s CPU        25.31s WALL


   This run was terminated on:  14:43:43  13Feb2023            

=------------------------------------------------------------------------------=
   JOB DONE.
=------------------------------------------------------------------------------=
