
     Program PWSCF v.5.1 starts on 13Feb2023 at 14:42:27 

     This program is part of the open-source Quantum ESPRESSO suite
     for quantum simulation of materials; please cite
         "P. Giannozzi et al., J. Phys.:Condens. Matter 21 395502 (2009);
          URL http://www.quantum-espresso.org", 
     in publications or presentations arising from this work. More details at
     http://www.quantum-espresso.org/quote

     Parallel version (MPI), running on     1 processors
     Waiting for input...
     Reading input from standard input
Warning: card    SI   -0.50    0.00    0.50 ignored
Warning: card    SI   -0.25    0.25    0.75 ignored

     Current dimensions of program PWSCF are:
     Max number of different atomic species (ntypx) = 10
     Max number of k-points (npk) =  40000
     Max angular momentum in pseudopotentials (lmaxx) =  3

     Atomic positions and unit cell read from directory:
     ./out/Si.save/

               file Si.pbe-mt_fhi.UPF: wavefunction(s)  4f renormalized
               file B.pbe-mt_fhi.UPF: wavefunction(s)  4f renormalized

     Subspace diagonalization in iterative solution of the eigenvalue problem:
     a serial algorithm will be used


     G-vector sticks info
     --------------------
     sticks:   dense  smooth     PW     G-vecs:    dense   smooth      PW
     Sum         733     733    223                12939    12939    2229



     bravais-lattice index     =            2
     lattice parameter (alat)  =      10.2623  a.u.
     unit-cell volume          =     270.1967 (a.u.)^3
     number of atoms/cell      =            2
     number of atomic types    =            2
     number of electrons       =         6.00
     number of Kohn-Sham states=           12
     kinetic-energy cutoff     =      50.0000  Ry
     charge density cutoff     =     200.0000  Ry
     Exchange-correlation      = PBE ( 1  4  3  4 0)

     celldm(1)=  10.262347  celldm(2)=   0.000000  celldm(3)=   0.000000
     celldm(4)=   0.000000  celldm(5)=   0.000000  celldm(6)=   0.000000

     crystal axes: (cart. coord. in units of alat)
               a(1) = (  -0.500000   0.000000   0.500000 )  
               a(2) = (   0.000000   0.500000   0.500000 )  
               a(3) = (  -0.500000   0.500000   0.000000 )  

     reciprocal axes: (cart. coord. in units 2 pi/alat)
               b(1) = ( -1.000000 -1.000000  1.000000 )  
               b(2) = (  1.000000  1.000000  1.000000 )  
               b(3) = ( -1.000000  1.000000 -1.000000 )  


     PseudoPot. # 1 for Si read from file:
     /home/acedemo/psudo/Si.pbe-mt_fhi.UPF
     MD5 check sum: 259057c2adf9952f9ced37ae3d9e311d
     Pseudo is Norm-conserving, Zval =  4.0
     Generated using FHI98PP, converted with fhi2upf.x v.5.0.2
     Using radial grid of  495 points,  3 beta functions with: 
                l(1) =   0
                l(2) =   1
                l(3) =   3

     PseudoPot. # 2 for  B read from file:
     /home/acedemo/psudo/B.pbe-mt_fhi.UPF
     MD5 check sum: 3ba04917d1d3a8de85490f79a9c37fe5
     Pseudo is Norm-conserving + core correction, Zval =  3.0
     Generated using FHI98PP, converted with fhi2upf.x v.5.0.2
     Using radial grid of  453 points,  3 beta functions with: 
                l(1) =   0
                l(2) =   1
                l(3) =   3

     atomic species   valence    mass     pseudopotential
        Si             4.00    28.08550     Si( 1.00)
        B              3.00    10.81100      B( 1.00)

     48 Sym. Ops., with inversion, found (24 have fractional translation)



   Cartesian axes

     site n.     atom                  positions (alat units)
         1           B   tau(   1) = (   0.0000000   0.0000000   0.0000000  )
         2           B   tau(   2) = (   0.2500000   0.2500000   0.2500000  )

     number of k points=    72 (tetrahedron method)
                       cart. coord. in units 2pi/alat
        k(    1) = (   0.0000000   0.0000000   0.0000000), wk =   0.0011574
        k(    2) = (  -0.0833333   0.0833333  -0.0833333), wk =   0.0092593
        k(    3) = (  -0.1666667   0.1666667  -0.1666667), wk =   0.0092593
        k(    4) = (  -0.2500000   0.2500000  -0.2500000), wk =   0.0092593
        k(    5) = (  -0.3333333   0.3333333  -0.3333333), wk =   0.0092593
        k(    6) = (  -0.4166667   0.4166667  -0.4166667), wk =   0.0092593
        k(    7) = (   0.5000000  -0.5000000   0.5000000), wk =   0.0046296
        k(    8) = (   0.0000000   0.1666667   0.0000000), wk =   0.0069444
        k(    9) = (  -0.0833333   0.2500000  -0.0833333), wk =   0.0277778
        k(   10) = (  -0.1666667   0.3333333  -0.1666667), wk =   0.0277778
        k(   11) = (  -0.2500000   0.4166667  -0.2500000), wk =   0.0277778
        k(   12) = (  -0.3333333   0.5000000  -0.3333333), wk =   0.0277778
        k(   13) = (   0.5833333  -0.4166667   0.5833333), wk =   0.0277778
        k(   14) = (   0.5000000  -0.3333333   0.5000000), wk =   0.0277778
        k(   15) = (   0.4166667  -0.2500000   0.4166667), wk =   0.0277778
        k(   16) = (   0.3333333  -0.1666667   0.3333333), wk =   0.0277778
        k(   17) = (   0.2500000  -0.0833333   0.2500000), wk =   0.0277778
        k(   18) = (   0.1666667  -0.0000000   0.1666667), wk =   0.0138889
        k(   19) = (   0.0000000   0.3333333   0.0000000), wk =   0.0069444
        k(   20) = (  -0.0833333   0.4166667  -0.0833333), wk =   0.0277778
        k(   21) = (  -0.1666667   0.5000000  -0.1666667), wk =   0.0277778
        k(   22) = (  -0.2500000   0.5833333  -0.2500000), wk =   0.0277778
        k(   23) = (   0.6666667  -0.3333333   0.6666667), wk =   0.0277778
        k(   24) = (   0.5833333  -0.2500000   0.5833333), wk =   0.0277778
        k(   25) = (   0.5000000  -0.1666667   0.5000000), wk =   0.0277778
        k(   26) = (   0.4166667  -0.0833333   0.4166667), wk =   0.0277778
        k(   27) = (   0.3333333   0.0000000   0.3333333), wk =   0.0138889
        k(   28) = (   0.0000000   0.5000000   0.0000000), wk =   0.0069444
        k(   29) = (  -0.0833333   0.5833333  -0.0833333), wk =   0.0277778
        k(   30) = (  -0.1666667   0.6666667  -0.1666667), wk =   0.0277778
        k(   31) = (   0.7500000  -0.2500000   0.7500000), wk =   0.0277778
        k(   32) = (   0.6666667  -0.1666667   0.6666667), wk =   0.0277778
        k(   33) = (   0.5833333  -0.0833333   0.5833333), wk =   0.0277778
        k(   34) = (   0.5000000   0.0000000   0.5000000), wk =   0.0138889
        k(   35) = (   0.0000000   0.6666667   0.0000000), wk =   0.0069444
        k(   36) = (  -0.0833333   0.7500000  -0.0833333), wk =   0.0277778
        k(   37) = (   0.8333333  -0.1666667   0.8333333), wk =   0.0277778
        k(   38) = (   0.7500000  -0.0833333   0.7500000), wk =   0.0277778
        k(   39) = (   0.6666667   0.0000000   0.6666667), wk =   0.0138889
        k(   40) = (   0.0000000   0.8333333   0.0000000), wk =   0.0069444
        k(   41) = (   0.9166667  -0.0833333   0.9166667), wk =   0.0277778
        k(   42) = (   0.8333333   0.0000000   0.8333333), wk =   0.0138889
        k(   43) = (   0.0000000  -1.0000000   0.0000000), wk =   0.0034722
        k(   44) = (  -0.1666667   0.3333333   0.0000000), wk =   0.0277778
        k(   45) = (  -0.2500000   0.4166667  -0.0833333), wk =   0.0555556
        k(   46) = (  -0.3333333   0.5000000  -0.1666667), wk =   0.0555556
        k(   47) = (   0.5833333  -0.4166667   0.7500000), wk =   0.0555556
        k(   48) = (   0.5000000  -0.3333333   0.6666667), wk =   0.0277778
        k(   49) = (  -0.1666667   0.5000000   0.0000000), wk =   0.0277778
        k(   50) = (  -0.2500000   0.5833333  -0.0833333), wk =   0.0555556
        k(   51) = (   0.6666667  -0.3333333   0.8333333), wk =   0.0555556
        k(   52) = (   0.5833333  -0.2500000   0.7500000), wk =   0.0555556
        k(   53) = (   0.5000000  -0.1666667   0.6666667), wk =   0.0555556
        k(   54) = (   0.4166667  -0.0833333   0.5833333), wk =   0.0555556
        k(   55) = (   0.3333333   0.0000000   0.5000000), wk =   0.0277778
        k(   56) = (  -0.1666667   0.6666667  -0.0000000), wk =   0.0277778
        k(   57) = (   0.7500000  -0.2500000   0.9166667), wk =   0.0555556
        k(   58) = (   0.6666667  -0.1666667   0.8333333), wk =   0.0555556
        k(   59) = (   0.5833333  -0.0833333   0.7500000), wk =   0.0555556
        k(   60) = (   0.5000000   0.0000000   0.6666667), wk =   0.0277778
        k(   61) = (   0.8333333  -0.1666667   1.0000000), wk =   0.0277778
        k(   62) = (   0.7500000  -0.0833333   0.9166667), wk =   0.0555556
        k(   63) = (   0.6666667   0.0000000   0.8333333), wk =   0.0277778
        k(   64) = (  -0.1666667  -1.0000000   0.0000000), wk =   0.0138889
        k(   65) = (   0.6666667  -0.3333333   1.0000000), wk =   0.0277778
        k(   66) = (   0.5833333  -0.2500000   0.9166667), wk =   0.0555556
        k(   67) = (   0.5000000  -0.1666667   0.8333333), wk =   0.0277778
        k(   68) = (   0.6666667  -0.1666667   1.0000000), wk =   0.0277778
        k(   69) = (   0.5833333  -0.0833333   0.9166667), wk =   0.0555556
        k(   70) = (   0.5000000   0.0000000   0.8333333), wk =   0.0277778
        k(   71) = (  -0.3333333  -1.0000000   0.0000000), wk =   0.0138889
        k(   72) = (  -0.5000000  -1.0000000   0.0000000), wk =   0.0069444

     Dense  grid:    12939 G-vectors     FFT dimensions: (  36,  36,  36)

     Largest allocated arrays     est. size (Mb)     dimensions
        Kohn-Sham Wavefunctions         0.30 Mb     (    1639,   12)
        NL pseudopotentials             0.55 Mb     (    1639,   22)
        Each V/rho on FFT grid          0.71 Mb     (   46656)
        Each G-vector array             0.10 Mb     (   12939)
        G-vector shells                 0.00 Mb     (     180)
     Largest temporary arrays     est. size (Mb)     dimensions
        Auxiliary wavefunctions         1.20 Mb     (    1639,   48)
        Each subspace H/S matrix        0.04 Mb     (      48,   48)
        Each <psi_i|beta_j> matrix      0.00 Mb     (      22,   12)

     Check: negative/imaginary core charge=   -0.000071    0.000000

     The potential is recalculated from file :
     ./out/Si.save/charge-density.dat

     Starting wfc are   32 randomized atomic wfcs

     Band Structure Calculation
     Davidson diagonalization with overlap

     ethr =  2.67E-11,  avg # of iterations = 14.7

     total cpu time spent up to now is       32.7 secs

     End of band structure calculation

          k = 0.0000 0.0000 0.0000 (  1639 PWs)   bands (ev):

    -8.0309   1.9925   1.9925   1.9925   3.1028   4.6275   4.6275   4.6275
    10.3930  15.2113  15.2113  15.9072

          k =-0.0833 0.0833-0.0833 (  1612 PWs)   bands (ev):

    -7.9523   1.2340   1.8865   1.8865   3.4909   4.7672   4.7672   4.8756
    10.5760  14.4572  14.4572  15.4745

          k =-0.1667 0.1667-0.1667 (  1591 PWs)   bands (ev):

    -7.7195   0.0252   1.6422   1.6422   3.6185   5.0926   5.0926   5.6448
    11.0002  13.7992  13.7992  14.7826

          k =-0.2500 0.2500-0.2500 (  1618 PWs)   bands (ev):

    -7.3433  -1.2057   1.3755   1.3755   3.5180   5.4401   5.4401   6.5869
    11.3879  13.5444  13.5444  14.2394

          k =-0.3333 0.3333-0.3333 (  1616 PWs)   bands (ev):

    -6.8519  -2.3448   1.1558   1.1558   3.3907   5.6998   5.6998   7.4701
    11.6029  13.6948  13.6948  13.7419

          k =-0.4167 0.4167-0.4167 (  1616 PWs)   bands (ev):

    -6.3317  -3.2667   1.0151   1.0151   3.3001   5.8413   5.8413   8.1330
    11.8100  13.1301  14.0960  14.0960

          k = 0.5000-0.5000 0.5000 (  1622 PWs)   bands (ev):

    -6.0583  -3.6760   0.9670   0.9670   3.2681   5.8836   5.8836   8.3857
    12.0421  12.6996  14.3425  14.3425

          k = 0.0000 0.1667 0.0000 (  1615 PWs)   bands (ev):

    -7.9261   1.2525   1.7040   1.7040   3.7432   4.5093   4.9879   4.9879
    10.6399  13.5543  15.3508  16.1487

          k =-0.0833 0.2500-0.0833 (  1599 PWs)   bands (ev):

    -7.7443   0.3240   1.4256   1.5218   4.0051   4.5920   5.3591   5.5388
    10.9932  12.7801  14.8350  15.7373

          k =-0.1667 0.3333-0.1667 (  1610 PWs)   bands (ev):

    -7.4147  -0.8400   1.1577   1.2599   3.9481   4.9628   5.7268   6.3329
    11.3960  12.4122  14.4247  15.1640

          k =-0.2500 0.4167-0.2500 (  1606 PWs)   bands (ev):

    -6.9573  -1.9837   0.9588   0.9729   3.8173   5.3604   5.9839   7.1315
    11.6260  12.4503  14.3770  14.7100

          k =-0.3333 0.5000-0.3333 (  1616 PWs)   bands (ev):

    -6.4301  -2.9793   0.7321   0.8547   3.7075   5.6519   6.0937   7.8269
    11.7484  12.6191  14.4065  14.5284

          k = 0.5833-0.4167 0.5833 (  1615 PWs)   bands (ev):

    -6.0260  -3.6014   0.5728   0.8536   3.6495   5.8284   6.0767   8.2398
    11.8379  12.6247  14.4384  14.5437

          k = 0.5000-0.3333 0.5000 (  1616 PWs)   bands (ev):

    -6.1244  -3.4584   0.5127   0.9530   3.6524   5.9158   5.9621   8.1620
    11.7675  12.8264  13.8918  14.8618

          k = 0.4167-0.2500 0.4167 (  1611 PWs)   bands (ev):

    -6.6077  -2.6705   0.5614   1.1410   3.7130   5.7555   5.9003   7.6251
    11.6656  13.1406  13.2866  15.0604

          k = 0.3333-0.1667 0.3333 (  1605 PWs)   bands (ev):

    -7.1227  -1.6117   0.7234   1.3938   3.8114   5.4545   5.7204   6.8703
    11.5491  12.9649  13.2717  15.3556

          k = 0.2500-0.0833 0.2500 (  1600 PWs)   bands (ev):

    -7.5408  -0.4625   1.0012   1.6647   3.8893   5.1015   5.3430   6.0975
    11.2576  13.0595  13.4907  15.8003

          k = 0.1667-0.0000 0.1667 (  1592 PWs)   bands (ev):

    -7.8222   0.5941   1.4167   1.8665   3.7852   4.8194   4.9452   5.3927
    10.8428  13.5768  14.0410  16.3860

          k = 0.0000 0.3333 0.0000 (  1607 PWs)   bands (ev):

    -7.6141   0.1105   1.1277   1.1277   4.2373   4.5191   5.7732   5.7732
    11.2528  11.9096  15.7693  16.8438

          k =-0.0833 0.4167-0.0833 (  1616 PWs)   bands (ev):

    -7.3336  -0.7083   0.8365   0.8509   4.2721   4.6917   6.1859   6.3202
    11.4605  11.6243  15.5307  16.5827

          k =-0.1667 0.5000-0.1667 (  1611 PWs)   bands (ev):

    -6.9173  -1.7119   0.4843   0.6523   4.3295   4.9963   6.4832   6.8636
    11.4776  11.8533  15.3005  16.0617

          k =-0.2500 0.5833-0.2500 (  1610 PWs)   bands (ev):

    -6.4042  -2.6835   0.1390   0.5585   4.2600   5.4617   6.6101   7.3522
    11.7285  11.8963  15.1713  15.6168

          k = 0.6667-0.3333 0.6667 (  1607 PWs)   bands (ev):

    -5.9219  -3.4260  -0.1304   0.5775   4.2031   5.8129   6.5731   7.8083
    11.4633  12.3363  14.7361  15.4601

          k = 0.5833-0.2500 0.5833 (  1602 PWs)   bands (ev):

    -5.8297  -3.5509  -0.2873   0.7052   4.1932   6.0270   6.4046   7.9565
    11.2881  12.7035  13.9430  15.6964

          k = 0.5000-0.1667 0.5000 (  1610 PWs)   bands (ev):

    -6.2391  -2.9480  -0.3049   0.9254   4.2241   6.1269   6.1357   7.5734
    11.4387  12.9200  13.1847  16.1760

          k = 0.4167-0.0833 0.4167 (  1613 PWs)   bands (ev):

    -6.7632  -2.0442  -0.1454   1.2054   4.2582   5.7609   6.0491   6.9818
    11.6230  12.7316  12.9938  16.7995

          k = 0.3333 0.0000 0.3333 (  1604 PWs)   bands (ev):

    -7.2154  -1.1451   0.2736   1.4851   4.1939   5.3731   5.6683   6.5414
    11.5578  12.6887  13.0938  17.4580

          k = 0.0000 0.5000 0.0000 (  1612 PWs)   bands (ev):

    -7.1024  -1.0804   0.5601   0.5601   3.9627   4.9029   6.6633   6.6633
    10.9575  11.9344  16.4665  17.8149

          k =-0.0833 0.5833-0.0833 (  1617 PWs)   bands (ev):

    -6.7310  -1.7933   0.2213   0.3473   4.0561   4.9394   7.0332   7.0543
    10.9376  12.1349  16.4076  17.5667

          k =-0.1667 0.6667-0.1667 (  1620 PWs)   bands (ev):

    -6.2460  -2.5965  -0.2325   0.2427   4.2583   5.2386   7.2178   7.2721
    11.2488  12.0647  16.0130  17.0439

          k = 0.7500-0.2500 0.7500 (  1617 PWs)   bands (ev):

    -5.7291  -3.3202  -0.6488   0.2571   4.3165   5.8385   7.1998   7.4328
    11.1942  12.1778  15.2588  16.7700

          k = 0.6667-0.1667 0.6667 (  1607 PWs)   bands (ev):

    -5.4697  -3.6386  -0.9270   0.3875   4.3631   6.3316   7.0026   7.5872
    10.7889  12.5836  14.2830  16.8267

          k = 0.5833-0.0833 0.5833 (  1611 PWs)   bands (ev):

    -5.7746  -3.2525  -0.9995   0.6175   4.4270   6.5950   6.6589   7.3962
    10.8519  12.8554  13.4239  17.1065

          k = 0.5000 0.0000 0.5000 (  1604 PWs)   bands (ev):

    -6.2899  -2.5979  -0.7696   0.9119   4.4421   6.2138   6.5465   7.0014
    11.3191  12.8825  12.9471  17.3733

          k = 0.0000 0.6667 0.0000 (  1624 PWs)   bands (ev):

    -6.4043  -2.2731   0.1134   0.1134   3.7984   4.7773   7.4919   7.4919
    10.8231  12.3413  17.4420  18.1669

          k =-0.0833 0.7500-0.0833 (  1618 PWs)   bands (ev):

    -5.9549  -2.9036  -0.2135  -0.0134   3.9595   4.7366   7.7327   7.7579
    11.0805  12.2636  17.0187  17.8535

          k = 0.8333-0.1667 0.8333 (  1619 PWs)   bands (ev):

    -5.4340  -3.5220  -0.7074  -0.0187   4.1594   5.2044   7.7527   7.7860
    11.2129  12.1097  16.0139  17.7127

          k = 0.7500-0.0833 0.7500 (  1620 PWs)   bands (ev):

    -5.0597  -3.9072  -1.1266   0.0973   4.2582   6.0320   7.5822   7.6429
    10.7351  12.4021  14.9325  17.7785

          k = 0.6667 0.0000 0.6667 (  1612 PWs)   bands (ev):

    -5.2850  -3.6686  -1.2766   0.3204   4.3706   6.7122   7.1837   7.3950
    10.4763  12.6999  14.0210  17.7187

          k = 0.0000 0.8333 0.0000 (  1628 PWs)   bands (ev):

    -5.5408  -3.4380  -0.1673  -0.1673   3.8073   4.3817   8.1077   8.1077
    11.2366  12.2713  17.6635  17.6635

          k = 0.9167-0.0833 0.9167 (  1622 PWs)   bands (ev):

    -5.0333  -3.9980  -0.4355  -0.2000   4.0114   4.4141   8.1830   8.1956
    11.4870  12.0218  16.8986  17.6156

          k = 0.8333 0.0000 0.8333 (  1614 PWs)   bands (ev):

    -4.6732  -4.3210  -0.8700  -0.1082   4.1272   5.1382   8.0025   8.0082
    11.1414  12.1445  15.8557  17.8723

          k = 0.0000-1.0000 0.0000 (  1604 PWs)   bands (ev):

    -4.5400  -4.5400  -0.2628  -0.2628   4.0122   4.0122   8.3419   8.3419
    11.8189  11.8189  17.4011  17.4011

          k =-0.1667 0.3333 0.0000 (  1603 PWs)   bands (ev):

    -7.5135  -0.3592   0.8425   1.4168   4.2896   4.6271   5.7082   6.0761
    11.3457  12.1586  14.4675  16.9829

          k =-0.2500 0.4167-0.0833 (  1607 PWs)   bands (ev):

    -7.1402  -1.3250   0.4080   1.1986   4.3053   5.0074   6.0896   6.6360
    11.6379  11.9779  14.1444  16.4724

          k =-0.3333 0.5000-0.1667 (  1604 PWs)   bands (ev):

    -6.6521  -2.3466   0.1544   0.9457   4.2178   5.4496   6.3094   7.2333
    11.7088  12.1446  14.0801  15.9699

          k = 0.5833-0.4167 0.7500 (  1612 PWs)   bands (ev):

    -6.1330  -3.2174   0.0250   0.7550   4.1444   5.7436   6.3725   7.8029
    11.5933  12.4178  14.1829  15.5041

          k = 0.5000-0.3333 0.6667 (  1602 PWs)   bands (ev):

    -5.8575  -3.6143  -0.0136   0.6843   4.1173   5.8409   6.3795   8.0637
    11.4887  12.5377  14.3628  15.1963

          k =-0.1667 0.5000 0.0000 (  1617 PWs)   bands (ev):

    -7.0082  -1.3658   0.2837   0.7420   4.3737   4.8252   6.6274   6.6662
    11.2327  11.8868  15.3829  17.8101

          k =-0.2500 0.5833-0.0833 (  1611 PWs)   bands (ev):

    -6.5567  -2.1891  -0.1368   0.5297   4.5649   5.0964   6.8267   7.0537
    11.4159  11.9086  15.1679  17.1409

          k = 0.6667-0.3333 0.8333 (  1617 PWs)   bands (ev):

    -6.0336  -3.0118  -0.4343   0.3695   4.5592   5.6072   6.8900   7.3903
    11.4682  11.9602  15.0150  16.4731

          k = 0.5833-0.2500 0.7500 (  1607 PWs)   bands (ev):

    -5.6286  -3.5632  -0.6325   0.3498   4.5513   5.9309   6.8916   7.6620
    11.0830  12.3336  14.6744  16.1649

          k = 0.5000-0.1667 0.6667 (  1605 PWs)   bands (ev):

    -5.7386  -3.4159  -0.7115   0.4749   4.5765   5.9876   6.8062   7.6192
    11.0601  12.4266  14.1855  16.4258

          k = 0.4167-0.0833 0.5833 (  1610 PWs)   bands (ev):

    -6.2248  -2.7303  -0.6189   0.7085   4.6132   5.7490   6.7263   7.1894
    11.4249  12.1853  13.9400  16.9842

          k = 0.3333 0.0000 0.5000 (  1606 PWs)   bands (ev):

    -6.7313  -1.9553  -0.2662   0.9859   4.5800   5.2985   6.5384   6.8022
    11.7039  11.9378  13.9250  17.5945

          k =-0.1667 0.6667-0.0000 (  1626 PWs)   bands (ev):

    -6.3218  -2.4098  -0.1420   0.1552   4.2124   4.9340   7.2262   7.4640
    11.0672  12.1584  16.3347  17.8836

          k = 0.7500-0.2500 0.9167 (  1621 PWs)   bands (ev):

    -5.8157  -3.0784  -0.5593  -0.0019   4.4938   5.2478   7.2327   7.6772
    11.3375  11.9280  15.9468  17.3515

          k = 0.6667-0.1667 0.8333 (  1616 PWs)   bands (ev):

    -5.3346  -3.6405  -0.9429  -0.0012   4.5833   5.9415   7.2006   7.6183
    10.9942  12.1339  15.2634  17.1631

          k = 0.5833-0.0833 0.7500 (  1614 PWs)   bands (ev):

    -5.2815  -3.6904  -1.1562   0.1473   4.6606   6.4158   7.1930   7.3579
    10.6638  12.3804  14.5118  17.3198

          k = 0.5000 0.0000 0.6667 (  1621 PWs)   bands (ev):

    -5.7191  -3.2168  -1.0808   0.4050   4.7187   6.2474   7.0516   7.1943
    10.8969  12.3550  14.0575  17.4126

          k = 0.8333-0.1667 1.0000 (  1617 PWs)   bands (ev):

    -5.4783  -3.4730  -0.3860  -0.2431   4.2053   4.6727   7.8038   8.0352
    11.3397  12.0408  16.8512  17.4089

          k = 0.7500-0.0833 0.9167 (  1620 PWs)   bands (ev):

    -4.9641  -3.9965  -0.7982  -0.2737   4.4546   5.1790   7.7178   7.9519
    11.2693  11.9354  16.0930  17.3911

          k = 0.6667 0.0000 0.8333 (  1620 PWs)   bands (ev):

    -4.8513  -4.0779  -1.1500  -0.1211   4.5615   6.0480   7.5138   7.5689
    10.7879  12.2081  15.1831  17.6115

          k =-0.1667-1.0000 0.0000 (  1622 PWs)   bands (ev):

    -4.5133  -4.5133  -0.4238  -0.4238   4.3723   4.3723   8.1529   8.1529
    11.7109  11.7109  17.0351  17.0351

          k = 0.6667-0.3333 1.0000 (  1610 PWs)   bands (ev):

    -6.0831  -2.7642  -0.6474   0.2783   5.0860   5.1689   6.8661   7.3739
    11.6208  11.6370  15.0139  17.4573

          k = 0.5833-0.2500 0.9167 (  1611 PWs)   bands (ev):

    -5.5679  -3.3782  -0.9229   0.0404   5.0910   5.7540   6.9366   7.4983
    11.1268  11.9496  15.0049  17.0676

          k = 0.5000-0.1667 0.8333 (  1610 PWs)   bands (ev):

    -5.2778  -3.7115  -1.0031  -0.0539   5.0850   5.9779   7.2058   7.3289
    10.8749  12.1027  15.0384  16.8312

          k = 0.6667-0.1667 1.0000 (  1618 PWs)   bands (ev):

    -5.3072  -3.5958  -0.8090  -0.3359   5.1408   5.2942   7.1259   7.7815
    11.4675  11.5934  15.9081  17.1180

          k = 0.5833-0.0833 0.9167 (  1615 PWs)   bands (ev):

    -4.8856  -4.0044  -1.0272  -0.4475   5.2724   5.9735   7.0745   7.4385
    11.0720  11.8088  15.7107  17.0047

          k = 0.5000 0.0000 0.8333 (  1612 PWs)   bands (ev):

    -5.0755  -3.8140  -1.1202  -0.2798   5.3038   6.1444   6.9911   7.3284
    10.9226  11.9283  15.2785  17.1964

          k =-0.3333-1.0000 0.0000 (  1618 PWs)   bands (ev):

    -4.4570  -4.4570  -0.7113  -0.7113   5.2183   5.2183   7.5956   7.5956
    11.5054  11.5054  16.5664  16.5664

          k =-0.5000-1.0000 0.0000 (  1628 PWs)   bands (ev):

    -4.4274  -4.4274  -0.8429  -0.8429   5.8779   5.8779   7.0576   7.0576
    11.4096  11.4096  16.3983  16.3983

     the Fermi energy is     0.1629 ev

     Writing output data file Si.save

     init_run     :      0.20s CPU      0.21s WALL (       1 calls)
     electrons    :     31.43s CPU     32.06s WALL (       1 calls)

     Called by init_run:
     wfcinit      :      0.00s CPU      0.00s WALL (       1 calls)
     potinit      :      0.04s CPU      0.04s WALL (       1 calls)

     Called by electrons:
     c_bands      :     31.28s CPU     31.91s WALL (       1 calls)
     v_of_rho     :      0.03s CPU      0.03s WALL (       1 calls)

     Called by c_bands:
     init_us_2    :      0.10s CPU      0.10s WALL (      72 calls)
     cegterg      :     24.57s CPU     25.06s WALL (      75 calls)

     Called by *egterg:
     h_psi        :     25.37s CPU     25.87s WALL (    1205 calls)
     g_psi        :      0.06s CPU      0.06s WALL (    1058 calls)
     cdiaghg      :      0.71s CPU      0.72s WALL (    1130 calls)

     Called by h_psi:
     add_vuspsi   :      0.75s CPU      0.76s WALL (    1205 calls)

     General routines
     calbec       :      0.85s CPU      0.87s WALL (    1205 calls)
     fft          :      0.02s CPU      0.02s WALL (      11 calls)
     fftw         :     22.31s CPU     22.77s WALL (   21090 calls)
     davcio       :      0.00s CPU      0.01s WALL (      72 calls)

     Parallel routines
     fft_scatter  :      0.60s CPU      0.60s WALL (   21101 calls)

     PWSCF        :    33.56s CPU        34.44s WALL


   This run was terminated on:  14:43: 1  13Feb2023            

=------------------------------------------------------------------------------=
   JOB DONE.
=------------------------------------------------------------------------------=
