
     Program PWSCF v.5.1 starts on  1Mar2023 at 15:58:13 

     This program is part of the open-source Quantum ESPRESSO suite
     for quantum simulation of materials; please cite
         "P. Giannozzi et al., J. Phys.:Condens. Matter 21 395502 (2009);
          URL http://www.quantum-espresso.org", 
     in publications or presentations arising from this work. More details at
     http://www.quantum-espresso.org/quote

     Parallel version (MPI), running on     1 processors
     Waiting for input...
     Reading input from standard input
Warning: card   SI    0.0000000000D0   0.5000000000D0   0.5000000000D0 ignored
Warning: card   SI    0.2500000000D0   0.7500000000D0   0.7500000000D0 ignored
Warning: card   SI   -0.5000000000D0   0.0000000000D0   0.5000000000D0 ignored
Warning: card   SI   -0.2500000000D0   0.2500000000D0   0.7500000000D0 ignored
Warning: card   SI   -0.5000000000D0   0.5000000000D0   0.10000000000D0 ignored
Warning: card   SI   -0.2500000000D0   0.7500000000D0   1.25000000000D0 ignored

     Current dimensions of program PWSCF are:
     Max number of different atomic species (ntypx) = 10
     Max number of k-points (npk) =  40000
     Max angular momentum in pseudopotentials (lmaxx) =  3

     Atomic positions and unit cell read from directory:
     ./out/Si.save/

               file Si.pbe-mt_fhi.UPF: wavefunction(s)  4f renormalized
               file B.pbe-mt_fhi.UPF: wavefunction(s)  4f renormalized
               file P.pbe-mt_fhi.UPF: wavefunction(s)  4f renormalized

     Subspace diagonalization in iterative solution of the eigenvalue problem:
     a serial algorithm will be used


     G-vector sticks info
     --------------------
     sticks:   dense  smooth     PW     G-vecs:    dense   smooth      PW
     Sum         733     733    223                12939    12939    2229



     bravais-lattice index     =            2
     lattice parameter (alat)  =      10.2623  a.u.
     unit-cell volume          =     270.1967 (a.u.)^3
     number of atoms/cell      =            2
     number of atomic types    =            3
     number of electrons       =         8.00
     number of Kohn-Sham states=           24
     kinetic-energy cutoff     =      50.0000  Ry
     charge density cutoff     =     200.0000  Ry
     Exchange-correlation      = PBE ( 1  4  3  4 0)

     celldm(1)=  10.262347  celldm(2)=   0.000000  celldm(3)=   0.000000
     celldm(4)=   0.000000  celldm(5)=   0.000000  celldm(6)=   0.000000

     crystal axes: (cart. coord. in units of alat)
               a(1) = (  -0.500000   0.000000   0.500000 )  
               a(2) = (   0.000000   0.500000   0.500000 )  
               a(3) = (  -0.500000   0.500000   0.000000 )  

     reciprocal axes: (cart. coord. in units 2 pi/alat)
               b(1) = ( -1.000000 -1.000000  1.000000 )  
               b(2) = (  1.000000  1.000000  1.000000 )  
               b(3) = ( -1.000000  1.000000 -1.000000 )  


     PseudoPot. # 1 for Si read from file:
     /home/acedemo/psudo/Si.pbe-mt_fhi.UPF
     MD5 check sum: 259057c2adf9952f9ced37ae3d9e311d
     Pseudo is Norm-conserving, Zval =  4.0
     Generated using FHI98PP, converted with fhi2upf.x v.5.0.2
     Using radial grid of  495 points,  3 beta functions with: 
                l(1) =   0
                l(2) =   1
                l(3) =   3

     PseudoPot. # 2 for  B read from file:
     /home/acedemo/psudo/B.pbe-mt_fhi.UPF
     MD5 check sum: 3ba04917d1d3a8de85490f79a9c37fe5
     Pseudo is Norm-conserving + core correction, Zval =  3.0
     Generated using FHI98PP, converted with fhi2upf.x v.5.0.2
     Using radial grid of  453 points,  3 beta functions with: 
                l(1) =   0
                l(2) =   1
                l(3) =   3

     PseudoPot. # 3 for  P read from file:
     /home/acedemo/psudo/P.pbe-mt_fhi.UPF
     MD5 check sum: 7191c457fb61afa58d0f00d0e4a443c1
     Pseudo is Norm-conserving, Zval =  5.0
     Generated using FHI98PP, converted with fhi2upf.x v.5.0.2
     Using radial grid of  499 points,  3 beta functions with: 
                l(1) =   0
                l(2) =   1
                l(3) =   3

     atomic species   valence    mass     pseudopotential
        Si             4.00    28.08550     Si( 1.00)
        B              3.00    10.81100      B( 1.00)
        P              5.00    30.97376      P( 1.00)

     24 Sym. Ops. (no inversion) found



   Cartesian axes

     site n.     atom                  positions (alat units)
         1           B   tau(   1) = (   0.0000000   0.0000000   0.0000000  )
         2           P   tau(   2) = (   0.2500000   0.2500000   0.2500000  )

     number of k points=    72 (tetrahedron method)
                       cart. coord. in units 2pi/alat
        k(    1) = (   0.0000000   0.0000000   0.0000000), wk =   0.0011574
        k(    2) = (  -0.0833333   0.0833333  -0.0833333), wk =   0.0092593
        k(    3) = (  -0.1666667   0.1666667  -0.1666667), wk =   0.0092593
        k(    4) = (  -0.2500000   0.2500000  -0.2500000), wk =   0.0092593
        k(    5) = (  -0.3333333   0.3333333  -0.3333333), wk =   0.0092593
        k(    6) = (  -0.4166667   0.4166667  -0.4166667), wk =   0.0092593
        k(    7) = (   0.5000000  -0.5000000   0.5000000), wk =   0.0046296
        k(    8) = (   0.0000000   0.1666667   0.0000000), wk =   0.0069444
        k(    9) = (  -0.0833333   0.2500000  -0.0833333), wk =   0.0277778
        k(   10) = (  -0.1666667   0.3333333  -0.1666667), wk =   0.0277778
        k(   11) = (  -0.2500000   0.4166667  -0.2500000), wk =   0.0277778
        k(   12) = (  -0.3333333   0.5000000  -0.3333333), wk =   0.0277778
        k(   13) = (   0.5833333  -0.4166667   0.5833333), wk =   0.0277778
        k(   14) = (   0.5000000  -0.3333333   0.5000000), wk =   0.0277778
        k(   15) = (   0.4166667  -0.2500000   0.4166667), wk =   0.0277778
        k(   16) = (   0.3333333  -0.1666667   0.3333333), wk =   0.0277778
        k(   17) = (   0.2500000  -0.0833333   0.2500000), wk =   0.0277778
        k(   18) = (   0.1666667  -0.0000000   0.1666667), wk =   0.0138889
        k(   19) = (   0.0000000   0.3333333   0.0000000), wk =   0.0069444
        k(   20) = (  -0.0833333   0.4166667  -0.0833333), wk =   0.0277778
        k(   21) = (  -0.1666667   0.5000000  -0.1666667), wk =   0.0277778
        k(   22) = (  -0.2500000   0.5833333  -0.2500000), wk =   0.0277778
        k(   23) = (   0.6666667  -0.3333333   0.6666667), wk =   0.0277778
        k(   24) = (   0.5833333  -0.2500000   0.5833333), wk =   0.0277778
        k(   25) = (   0.5000000  -0.1666667   0.5000000), wk =   0.0277778
        k(   26) = (   0.4166667  -0.0833333   0.4166667), wk =   0.0277778
        k(   27) = (   0.3333333   0.0000000   0.3333333), wk =   0.0138889
        k(   28) = (   0.0000000   0.5000000   0.0000000), wk =   0.0069444
        k(   29) = (  -0.0833333   0.5833333  -0.0833333), wk =   0.0277778
        k(   30) = (  -0.1666667   0.6666667  -0.1666667), wk =   0.0277778
        k(   31) = (   0.7500000  -0.2500000   0.7500000), wk =   0.0277778
        k(   32) = (   0.6666667  -0.1666667   0.6666667), wk =   0.0277778
        k(   33) = (   0.5833333  -0.0833333   0.5833333), wk =   0.0277778
        k(   34) = (   0.5000000   0.0000000   0.5000000), wk =   0.0138889
        k(   35) = (   0.0000000   0.6666667   0.0000000), wk =   0.0069444
        k(   36) = (  -0.0833333   0.7500000  -0.0833333), wk =   0.0277778
        k(   37) = (   0.8333333  -0.1666667   0.8333333), wk =   0.0277778
        k(   38) = (   0.7500000  -0.0833333   0.7500000), wk =   0.0277778
        k(   39) = (   0.6666667   0.0000000   0.6666667), wk =   0.0138889
        k(   40) = (   0.0000000   0.8333333   0.0000000), wk =   0.0069444
        k(   41) = (   0.9166667  -0.0833333   0.9166667), wk =   0.0277778
        k(   42) = (   0.8333333   0.0000000   0.8333333), wk =   0.0138889
        k(   43) = (   0.0000000  -1.0000000   0.0000000), wk =   0.0034722
        k(   44) = (  -0.1666667   0.3333333   0.0000000), wk =   0.0277778
        k(   45) = (  -0.2500000   0.4166667  -0.0833333), wk =   0.0555556
        k(   46) = (  -0.3333333   0.5000000  -0.1666667), wk =   0.0555556
        k(   47) = (   0.5833333  -0.4166667   0.7500000), wk =   0.0555556
        k(   48) = (   0.5000000  -0.3333333   0.6666667), wk =   0.0277778
        k(   49) = (  -0.1666667   0.5000000   0.0000000), wk =   0.0277778
        k(   50) = (  -0.2500000   0.5833333  -0.0833333), wk =   0.0555556
        k(   51) = (   0.6666667  -0.3333333   0.8333333), wk =   0.0555556
        k(   52) = (   0.5833333  -0.2500000   0.7500000), wk =   0.0555556
        k(   53) = (   0.5000000  -0.1666667   0.6666667), wk =   0.0555556
        k(   54) = (   0.4166667  -0.0833333   0.5833333), wk =   0.0555556
        k(   55) = (   0.3333333   0.0000000   0.5000000), wk =   0.0277778
        k(   56) = (  -0.1666667   0.6666667  -0.0000000), wk =   0.0277778
        k(   57) = (   0.7500000  -0.2500000   0.9166667), wk =   0.0555556
        k(   58) = (   0.6666667  -0.1666667   0.8333333), wk =   0.0555556
        k(   59) = (   0.5833333  -0.0833333   0.7500000), wk =   0.0555556
        k(   60) = (   0.5000000   0.0000000   0.6666667), wk =   0.0277778
        k(   61) = (   0.8333333  -0.1666667   1.0000000), wk =   0.0277778
        k(   62) = (   0.7500000  -0.0833333   0.9166667), wk =   0.0555556
        k(   63) = (   0.6666667   0.0000000   0.8333333), wk =   0.0277778
        k(   64) = (  -0.1666667  -1.0000000   0.0000000), wk =   0.0138889
        k(   65) = (   0.6666667  -0.3333333   1.0000000), wk =   0.0277778
        k(   66) = (   0.5833333  -0.2500000   0.9166667), wk =   0.0555556
        k(   67) = (   0.5000000  -0.1666667   0.8333333), wk =   0.0277778
        k(   68) = (   0.6666667  -0.1666667   1.0000000), wk =   0.0277778
        k(   69) = (   0.5833333  -0.0833333   0.9166667), wk =   0.0555556
        k(   70) = (   0.5000000   0.0000000   0.8333333), wk =   0.0277778
        k(   71) = (  -0.3333333  -1.0000000   0.0000000), wk =   0.0138889
        k(   72) = (  -0.5000000  -1.0000000   0.0000000), wk =   0.0069444

     Dense  grid:    12939 G-vectors     FFT dimensions: (  36,  36,  36)

     Largest allocated arrays     est. size (Mb)     dimensions
        Kohn-Sham Wavefunctions         0.60 Mb     (    1639,   24)
        NL pseudopotentials             0.55 Mb     (    1639,   22)
        Each V/rho on FFT grid          0.71 Mb     (   46656)
        Each G-vector array             0.10 Mb     (   12939)
        G-vector shells                 0.00 Mb     (     180)
     Largest temporary arrays     est. size (Mb)     dimensions
        Auxiliary wavefunctions         2.40 Mb     (    1639,   96)
        Each subspace H/S matrix        0.14 Mb     (      96,   96)
        Each <psi_i|beta_j> matrix      0.01 Mb     (      22,   24)

     Check: negative/imaginary core charge=   -0.000048    0.000000

     The potential is recalculated from file :
     ./out/Si.save/charge-density.dat

     Starting wfc are   32 randomized atomic wfcs

     Band Structure Calculation
     Davidson diagonalization with overlap

     ethr =  2.00E-11,  avg # of iterations = 16.4

     total cpu time spent up to now is       96.6 secs

     End of band structure calculation

          k = 0.0000 0.0000 0.0000 (  1639 PWs)   bands (ev):

    -8.2493   3.2708   3.2708   3.2708   4.0721   6.1484   6.1484   6.1484
    12.0007  14.0553  14.0553  16.4889  16.4889  16.4889  20.5694  24.4773
    24.4773  24.4773  29.9674  29.9674  29.9674  31.3499  31.3499  35.8257

          k =-0.0833 0.0833-0.0833 (  1612 PWs)   bands (ev):

    -8.1747   2.2784   3.1584   3.1584   4.6824   6.3076   6.3076   6.4252
    12.2582  13.7470  13.7470  16.2306  17.0517  17.0517  21.0319  24.0267
    24.2988  24.2988  29.4857  29.4857  30.3416  31.1687  31.1687  35.9099

          k =-0.1667 0.1667-0.1667 (  1591 PWs)   bands (ev):

    -7.9560   0.9218   2.9009   2.9009   4.8640   6.6749   6.6749   7.3503
    12.8523  13.3274  13.3274  15.8377  18.1937  18.1937  21.5922  23.6378
    23.7416  23.7416  28.5399  28.5399  30.8864  31.1653  31.1653  36.1565

          k =-0.2500 0.2500-0.2500 (  1618 PWs)   bands (ev):

    -7.6114  -0.3851   2.6217   2.6217   4.7260   7.0501   7.0501   8.5357
    13.2394  13.2394  13.2989  15.8264  19.1607  19.1607  20.9759  23.1329
    23.1329  24.8577  27.9384  27.9384  30.6555  31.3112  31.3112  35.9279

          k =-0.3333 0.3333-0.3333 (  1616 PWs)   bands (ev):

    -7.1848  -1.5298   2.3930   2.3930   4.5521   7.2976   7.2976   9.6837
    13.4105  13.6150  13.6150  15.8999  18.9456  18.9456  20.7106  23.5802
    23.5802  26.3645  27.7306  27.7306  29.7054  31.3921  31.3921  34.9786

          k =-0.4167 0.4167-0.4167 (  1616 PWs)   bands (ev):

    -6.7799  -2.3762   2.2473   2.2473   4.4289   7.4052   7.4052  10.5656
    13.6361  14.3591  14.3591  15.2864  17.8449  17.8449  21.6091  24.8927
    24.8927  25.9697  27.7505  27.7505  30.4890  30.9770  30.9770  33.5001

          k = 0.5000-0.5000 0.5000 (  1622 PWs)   bands (ev):

    -6.5973  -2.7077   2.1975   2.1975   4.3855   7.4306   7.4306  10.8953
    14.1960  14.4661  14.9049  14.9049  17.1289  17.1289  22.5812  24.9063
    25.6563  25.6563  27.8614  27.8614  30.3449  30.3449  32.3263  33.1250

          k = 0.0000 0.1667 0.0000 (  1615 PWs)   bands (ev):

    -8.1498   2.2498   2.9598   2.9598   5.0270   5.9875   6.5658   6.5658
    12.3465  13.1965  14.1774  16.7052  16.7052  17.1057  21.1976  23.9678
    23.9678  24.4321  29.6255  29.9087  29.9087  30.0532  31.8711  36.3822

          k =-0.0833 0.2500-0.0833 (  1599 PWs)   bands (ev):

    -7.9786   1.2177   2.6638   2.7487   5.3743   6.0674   6.9954   7.2211
    12.6210  12.8653  14.0573  16.4148  17.4085  18.1635  21.7069  23.3031
    23.3710  24.5271  28.6814  28.7317  30.2697  30.4254  32.0110  36.6045

          k =-0.1667 0.3333-0.1667 (  1610 PWs)   bands (ev):

    -7.6745  -0.0220   2.3830   2.4608   5.2888   6.4917   7.4067   8.1853
    12.4337  13.4236  13.9340  16.1963  18.4645  19.3548  21.1000  22.4368
    23.5486  25.1096  27.8198  27.8298  30.6055  30.6088  31.8518  35.7129

          k =-0.2500 0.4167-0.2500 (  1606 PWs)   bands (ev):

    -7.2701  -1.1859   2.1506   2.1772   5.1092   6.9218   7.6605   9.1583
    12.7456  13.6441  14.1794  16.2313  18.6668  19.7279  20.5869  22.4225
    23.9939  26.2319  27.4405  27.6211  29.9318  30.9941  31.2928  34.8451

          k =-0.3333 0.5000-0.3333 (  1616 PWs)   bands (ev):

    -6.8439  -2.1261   1.8931   2.0717   4.9602   7.2018   7.7295  10.0577
    13.3822  13.7610  14.7490  15.8114  17.7236  19.0786  21.1438  23.7401
    25.0021  26.2289  27.3153  27.8087  30.0810  30.4467  31.3703  33.6503

          k = 0.5833-0.4167 0.5833 (  1615 PWs)   bands (ev):

    -6.5642  -2.6440   1.7241   2.0740   4.8813   7.3618   7.6759  10.6632
    13.6316  14.3346  14.9311  15.3386  17.2399  18.0775  22.3398  24.8574
    25.1598  25.7817  27.4954  27.7295  29.8386  30.9954  32.0677  32.4386

          k = 0.5000-0.3333 0.5000 (  1616 PWs)   bands (ev):

    -6.6275  -2.5319   1.6616   2.1809   4.8849   7.4637   7.5548  10.5760
    13.6043  14.1009  14.6299  15.6171  17.6825  18.1024  21.9362  24.6287
    25.4819  25.5834  27.3599  27.9536  30.0507  31.0229  31.4270  32.8724

          k = 0.4167-0.2500 0.4167 (  1611 PWs)   bands (ev):

    -6.9816  -1.8448   1.7158   2.3800   4.9671   7.3622   7.4919   9.8340
    13.2243  13.5253  14.4179  16.0662  18.3308  19.2628  20.7682  23.1448
    24.8016  26.4871  27.5190  27.5836  29.7801  30.6592  31.5454  33.9233

          k = 0.3333-0.1667 0.3333 (  1605 PWs)   bands (ev):

    -7.4137  -0.8148   1.8922   2.6466   5.1033   7.0621   7.3416   8.8584
    12.7286  13.4539  13.9175  16.2966  18.7831  19.8281  20.4816  22.2608
    24.1466  25.7600  27.3410  27.6189  30.2982  31.0631  31.4013  34.9903

          k = 0.2500-0.0833 0.2500 (  1600 PWs)   bands (ev):

    -7.7900   0.3744   2.1958   2.9319   5.2172   6.6796   6.9264   7.9098
    12.7136  13.2120  13.6010  16.3005  17.9699  19.2238  21.2215  22.6639
    24.2192  24.3346  27.7646  28.1403  30.5926  31.1818  31.4587  36.1034

          k = 0.1667-0.0000 0.1667 (  1592 PWs)   bands (ev):

    -8.0519   1.5251   2.6485   3.1427   5.0857   6.3630   6.4778   7.0561
    12.6379  13.1152  13.7373  16.4923  16.9351  18.0780  21.5209  23.3845
    23.8973  24.3786  28.6822  29.0824  30.3323  31.1606  31.3097  36.5293

          k = 0.0000 0.3333 0.0000 (  1607 PWs)   bands (ev):

    -7.8563   0.9268   2.3455   2.3455   5.6246   6.0401   7.4918   7.4918
    11.9849  13.2375  14.5391  17.3291  17.3291  18.0338  22.0566  22.7210
    22.7210  25.0293  27.8087  29.3401  29.8650  29.8650  32.4551  36.5705

          k =-0.0833 0.4167-0.0833 (  1616 PWs)   bands (ev):

    -7.5976   0.0596   2.0186   2.0542   5.6428   6.2426   7.9803   8.1310
    11.7748  13.7892  14.6426  17.2157  18.0475  19.1286  21.2645  21.9034
    22.8581  25.9677  26.8292  28.5097  29.9881  30.2822  32.2809  35.2742

          k =-0.1667 0.5000-0.1667 (  1611 PWs)   bands (ev):

    -7.2278  -0.9546   1.6229   1.8480   5.7050   6.5711   8.3058   8.6685
    12.1756  14.0964  14.8273  17.1198  18.4877  19.9507  20.5025  21.5613
    23.6686  26.3379  26.5824  28.1140  30.0799  30.2380  31.2594  34.3092

          k =-0.2500 0.5833-0.2500 (  1610 PWs)   bands (ev):

    -6.8061  -1.8750   1.2435   1.7529   5.6159   7.0769   8.4045   9.1763
    12.9120  14.0270  15.2110  16.7951  17.7665  20.1267  20.6781  22.6717
    24.9489  25.9804  26.1986  28.0553  29.8200  30.4821  30.5835  33.7556

          k = 0.6667-0.3333 0.6667 (  1607 PWs)   bands (ev):

    -6.4653  -2.4970   0.9535   1.7764   5.5431   7.4164   8.3216   9.8693
    12.9529  14.3978  15.0320  16.3711  17.5320  19.6308  21.7572  24.1958
    24.7190  25.9608  26.4065  27.3996  29.1972  31.0724  31.8039  32.7041

          k = 0.5833-0.2500 0.5833 (  1602 PWs)   bands (ev):

    -6.4101  -2.5873   0.7905   1.9139   5.5358   7.6157   8.1244  10.2642
    12.6756  14.0237  14.9300  16.4326  18.4407  18.9849  21.9191  24.1815
    24.9468  25.5344  26.7689  27.4598  30.5163  30.6514  31.4791  31.8286

          k = 0.5000-0.1667 0.5000 (  1610 PWs)   bands (ev):

    -6.6848  -2.1036   0.7823   2.1485   5.5887   7.7479   7.8315   9.7114
    13.0694  13.1306  14.9061  16.7928  18.8500  19.5649  20.6243  23.0975
    25.0711  25.7826  27.4658  27.8909  29.5830  30.3778  31.6248  32.5714

          k = 0.4167-0.0833 0.4167 (  1613 PWs)   bands (ev):

    -7.0999  -1.2756   0.9685   2.4463   5.6553   7.4348   7.6930   8.9029
    12.5005  13.6363  14.3970  17.1418  18.8781  19.7613  20.2643  21.9644
    25.2427  26.2213  26.5916  27.5863  30.0458  30.3773  31.3136  33.4591

          k = 0.3333 0.0000 0.3333 (  1604 PWs)   bands (ev):

    -7.4937  -0.3744   1.4251   2.7435   5.5998   6.9935   7.2661   8.4070
    12.3996  13.6774  13.8045  17.0174  18.2998  20.0796  20.0835  22.0835
    24.8653  25.5933  26.7120  27.3679  30.5645  30.8442  31.4965  34.6563

          k = 0.0000 0.5000 0.0000 (  1612 PWs)   bands (ev):

    -7.3862  -0.3624   1.7472   1.7472   5.2598   6.4565   8.5826   8.5826
    11.5049  14.3018  15.1230  18.2091  18.2091  19.0676  21.3377  21.3377
    21.9823  25.5807  26.8364  29.4818  29.7926  29.7926  32.1926  34.9319

          k =-0.0833 0.5833-0.0833 (  1617 PWs)   bands (ev):

    -7.0598  -1.0813   1.3794   1.5251   5.3449   6.4561   8.9819   9.0385
    11.8725  14.6310  15.4217  18.2940  18.4955  19.7032  20.6604  21.0298
    22.6918  24.8214  27.2409  29.0627  29.7187  30.0026  31.4171  33.5986

          k =-0.1667 0.6667-0.1667 (  1620 PWs)   bands (ev):

    -6.6649  -1.8306   0.8840   1.4178   5.5531   6.8232   9.0708   9.2359
    12.6573  14.4444  15.6880  17.9358  18.1820  19.7983  20.9661  21.9350
    24.2109  24.6019  26.3855  28.2849  29.4454  29.7037  31.1068  33.1265

          k = 0.7500-0.2500 0.7500 (  1617 PWs)   bands (ev):

    -6.3056  -2.4159   0.4350   1.4353   5.6123   7.5888   9.1786   9.1839
    12.7602  14.4871  15.2609  17.8487  17.8858  20.3471  21.4565  23.2945
    24.5884  24.8854  26.0608  27.0616  28.8021  29.8741  31.2720  32.8005

          k = 0.6667-0.1667 0.6667 (  1607 PWs)   bands (ev):

    -6.1631  -2.6209   0.1414   1.5747   5.6767   8.1687   8.9296   9.5785
    12.0015  14.1780  15.1034  17.7724  18.7584  20.3317  21.6415  23.7428
    23.8993  25.5478  26.1933  26.6959  29.5105  30.4107  30.9813  32.3590

          k = 0.5833-0.0833 0.5833 (  1611 PWs)   bands (ev):

    -6.3430  -2.3506   0.0744   1.8191   5.7805   8.4173   8.5241   9.4750
    12.0505  13.2154  15.3499  17.9233  19.7342  20.0639  20.3615  23.3965
    24.1742  24.9065  27.4947  27.8305  29.4615  29.9730  31.7631  31.8039

          k = 0.5000 0.0000 0.5000 (  1604 PWs)   bands (ev):

    -6.7121  -1.8118   0.3240   2.1326   5.8429   7.9892   8.3390   8.8638
    12.6416  12.9935  15.0228  17.8323  19.2828  19.8276  20.2918  22.2499
    24.7814  25.5272  27.6959  28.2825  29.4908  29.5557  31.5058  32.4315

          k = 0.0000 0.6667 0.0000 (  1624 PWs)   bands (ev):

    -6.7820  -1.5567   1.2802   1.2802   5.0256   6.1653   9.6646   9.6646
    11.9743  15.0278  15.8812  18.4821  18.4821  20.2610  20.9713  20.9713
    22.1808  23.6003  27.4979  29.2327  29.2327  29.3974  32.3036  32.9060

          k =-0.0833 0.7500-0.0833 (  1618 PWs)   bands (ev):

    -6.4348  -2.1184   0.9299   1.1487   5.1881   6.0921   9.9129  10.0191
    12.6004  14.8534  16.1777  18.0098  18.4395  20.2928  21.4843  21.7244
    23.0660  23.4198  26.6969  28.0789  28.7608  29.1417  31.4490  33.2416

          k = 0.8333-0.1667 0.8333 (  1619 PWs)   bands (ev):

    -6.1055  -2.5683   0.4028   1.1446   5.3939   6.6732   9.8549  10.0380
    12.8722  14.5522  15.6826  18.0894  18.8569  20.1291  22.1643  22.5745
    23.5157  24.4658  25.8369  26.8013  28.5356  28.8302  30.5842  33.3820

          k = 0.7500-0.0833 0.7500 (  1620 PWs)   bands (ev):

    -5.9421  -2.7495  -0.0387   1.2676   5.5095   7.7453   9.7099   9.7549
    12.0328  14.6241  15.0245  18.8674  19.2448  20.2417  22.0384  22.8302
    23.8036  25.0065  25.4889  26.8176  28.5157  28.8712  31.0163  32.5303

          k = 0.6667 0.0000 0.6667 (  1612 PWs)   bands (ev):

    -6.0480  -2.6165  -0.1982   1.5036   5.6642   8.7370   9.2219   9.3914
    11.4491  13.7323  15.3971  19.1168  19.5412  20.1652  21.0407  23.2872
    23.9403  24.5187  26.5266  27.5139  28.3355  29.9260  31.6411  32.3209

          k = 0.0000 0.8333 0.0000 (  1628 PWs)   bands (ev):

    -6.1577  -2.5374   0.9882   0.9882   4.9902   5.6371  10.5483  10.5483
    12.9006  14.9606  16.6692  17.7052  17.7052  21.7276  22.0658  22.1635
    22.1635  23.2789  26.1836  27.8222  27.8789  27.8789  31.7083  33.3862

          k = 0.9167-0.0833 0.9167 (  1622 PWs)   bands (ev):

    -5.9194  -2.8439   0.7003   0.9547   5.2017   5.6883  10.6361  10.6793
    13.2535  14.5662  16.3423  17.8637  17.8760  21.7831  21.8127  22.8525
    23.0456  24.2911  25.4044  26.1894  27.3941  28.3686  30.6515  33.2788

          k = 0.8333 0.0000 0.8333 (  1614 PWs)   bands (ev):

    -5.8349  -2.8982   0.2381   1.0514   5.3383   6.5642  10.3439  10.3902
    12.6529  14.7316  15.3931  18.5405  18.7285  21.2012  22.0669  22.6325
    24.0193  24.1337  25.3532  26.2692  27.7015  29.1463  29.7497  32.7883

          k = 0.0000-1.0000 0.0000 (  1604 PWs)   bands (ev):

    -5.8384  -2.9758   0.8891   0.8891   5.1227   5.2838  10.9168  10.9168
    13.5756  14.5416  17.0693  17.2908  17.2908  21.4151  23.0530  23.0530
    23.0842  24.1356  24.9044  26.5560  26.9157  26.9157  31.4822  33.3857

          k =-0.1667 0.3333 0.0000 (  1603 PWs)   bands (ev):

    -7.7639   0.4532   2.0346   2.6491   5.7399   6.0806   7.3912   7.8655
    12.2048  13.3764  14.0966  16.8798  17.5913  19.1041  21.2942  22.4821
    23.5113  25.1321  27.6784  28.1720  30.1032  30.6702  32.1482  35.6917

          k =-0.2500 0.4167-0.0833 (  1607 PWs)   bands (ev):

    -7.4259  -0.5539   1.5602   2.4216   5.7335   6.5233   7.8249   8.4874
    12.2307  13.7881  14.2314  16.9042  18.5114  19.9433  20.2846  21.9113
    24.0630  26.1172  26.9326  27.5304  30.1520  30.6052  31.7244  34.3298

          k =-0.3333 0.5000-0.1667 (  1604 PWs)   bands (ev):

    -7.0087  -1.5555   1.2737   2.1583   5.6027   7.0092   8.0404   9.1778
    12.7128  13.7591  14.6866  16.7364  18.4584  19.9744  20.3614  22.2896
    24.8840  26.1288  26.8574  27.9732  29.8050  30.3678  31.1050  33.4870

          k = 0.5833-0.4167 0.7500 (  1612 PWs)   bands (ev):

    -6.6145  -2.3316   1.1233   1.9621   5.4987   7.2798   8.0860   9.9614
    13.1167  13.8093  15.0375  16.2292  17.9136  19.3810  21.3054  23.7743
    25.2822  25.7069  26.9124  27.9125  29.4639  30.9781  31.2983  32.7805

          k = 0.5000-0.3333 0.6667 (  1602 PWs)   bands (ev):

    -6.4373  -2.6403   1.0773   1.8902   5.4609   7.3521   8.0902  10.3987
    12.8972  14.4106  14.9270  15.8761  17.9635  18.7586  22.2709  24.2914
    25.1036  25.7275  26.7753  27.5076  30.1837  30.8413  31.4835  32.4236

          k =-0.1667 0.5000 0.0000 (  1617 PWs)   bands (ev):

    -7.3046  -0.6356   1.4448   1.9316   5.7372   6.3907   8.4538   8.5326
    11.8534  14.2103  14.8967  17.6609  18.4839  19.6943  20.3764  21.4979
    23.1598  25.9537  26.7845  28.4680  29.6623  30.4143  31.7292  33.7645

          k =-0.2500 0.5833-0.0833 (  1611 PWs)   bands (ev):

    -6.9189  -1.4427   0.9861   1.7111   5.9581   6.6873   8.5522   8.9853
    12.4174  14.1622  15.2394  17.6733  18.6590  19.7327  20.3895  21.6870
    24.3103  25.5551  26.4595  28.5615  29.6003  30.2885  30.7086  32.7804

          k = 0.6667-0.3333 0.8333 (  1617 PWs)   bands (ev):

    -6.5186  -2.1700   0.6523   1.5486   5.9581   7.2501   8.6601   9.2965
    12.8728  13.8923  15.5043  17.1899  18.2942  20.2789  20.7521  22.9174
    25.0413  25.3645  26.2542  27.6511  29.0405  30.2414  31.0801  32.7661

          k = 0.5833-0.2500 0.7500 (  1607 PWs)   bands (ev):

    -6.2635  -2.5821   0.4347   1.5309   5.9553   7.5320   8.7916   9.7091
    12.2947  14.3522  15.1645  16.9347  18.5371  20.0588  21.7370  23.8042
    24.4994  25.5508  26.0942  27.1272  29.5447  30.3900  31.4691  31.9980

          k = 0.5000-0.1667 0.6667 (  1605 PWs)   bands (ev):

    -6.3288  -2.4763   0.3574   1.6623   6.0031   7.5603   8.6988   9.7447
    12.2464  13.7481  15.3180  17.1446  19.0116  19.9233  21.1484  23.7080
    24.6443  25.1705  26.5375  27.7303  29.7862  30.1991  31.1780  32.2126

          k = 0.4167-0.0833 0.5833 (  1610 PWs)   bands (ev):

    -6.6619  -1.9266   0.4711   1.9076   6.0771   7.3394   8.5337   9.1190
    12.7470  13.2472  15.1778  17.5234  19.1824  19.9118  20.2438  22.4489
    25.0412  25.4659  27.1270  28.1290  29.3058  30.0163  31.2716  32.2020

          k = 0.3333 0.0000 0.5000 (  1606 PWs)   bands (ev):

    -7.0693  -1.2092   0.8549   2.2001   6.0725   6.8314   8.3634   8.5844
    12.3612  13.8161  14.6494  17.5303  19.0985  19.3575  20.3296  21.7473
    25.0989  25.9208  26.4002  28.0694  29.8363  30.2180  31.2550  32.7554

          k =-0.1667 0.6667-0.0000 (  1626 PWs)   bands (ev):

    -6.7192  -1.6754   0.9994   1.3200   5.5061   6.4017   9.1100   9.6321
    12.3551  14.6167  15.7930  18.2950  18.7016  19.7346  20.5085  21.5609
    23.4802  24.1927  26.9516  28.5799  29.3139  29.7547  31.2863  32.6676

          k = 0.7500-0.2500 0.9167 (  1621 PWs)   bands (ev):

    -6.3456  -2.2439   0.5504   1.1572   5.8142   6.7868   9.0118   9.9143
    12.8886  14.1145  15.9278  17.9842  18.9027  19.7896  21.1295  22.5139
    23.8945  25.0213  26.0949  27.3363  28.7194  29.4646  30.7312  33.2149

          k = 0.6667-0.1667 0.8333 (  1616 PWs)   bands (ev):

    -6.0669  -2.6176   0.1416   1.1588   5.9217   7.6859   8.9362   9.8018
    12.3495  14.3412  15.4093  18.0593  19.2031  20.1855  21.8457  23.2157
    24.0329  24.6555  26.1844  26.7432  28.4534  29.4914  30.8523  32.3893

          k = 0.5833-0.0833 0.7500 (  1614 PWs)   bands (ev):

    -6.0475  -2.6315  -0.0806   1.3144   6.0354   8.2594   9.1512   9.3593
    11.7332  13.9466  15.4141  18.3873  19.6057  20.3411  21.2440  23.4244
    23.9588  24.8981  25.9950  27.2120  28.6981  30.0594  31.4126  32.2175

          k = 0.5000 0.0000 0.6667 (  1621 PWs)   bands (ev):

    -6.2978  -2.3243   0.0007   1.5857   6.1506   7.9911   8.8255   9.3269
    12.0914  13.2616  15.5127  18.3767  19.7435  20.0680  20.2916  23.1148
    24.3836  24.7234  27.3337  27.7374  29.1435  29.5977  31.3292  31.9892

          k = 0.8333-0.1667 1.0000 (  1617 PWs)   bands (ev):

    -6.1241  -2.5476   0.7457   0.9066   5.4549   6.0032   9.9631  10.4623
    13.0430  14.4264  16.3091  17.9323  18.3367  20.9903  21.6037  22.4221
    22.9215  24.4730  25.9598  26.6322  28.3461  29.0183  30.5217  32.8088

          k = 0.7500-0.0833 0.9167 (  1620 PWs)   bands (ev):

    -5.8951  -2.8020   0.3091   0.8726   5.7350   6.6270   9.8029  10.3231
    12.8263  14.2946  15.8176  18.1042  19.1106  20.9566  22.2657  22.5917
    23.5138  24.3624  25.5922  26.5217  28.0830  28.8545  30.2306  32.4181

          k = 0.6667 0.0000 0.8333 (  1620 PWs)   bands (ev):

    -5.8681  -2.7971  -0.0610   1.0318   5.8763   7.7638   9.4834   9.7199
    12.1024  14.3308  15.3819  18.6394  19.8521  20.4583  21.8663  22.8456
    23.8025  24.8815  25.1601  27.1669  27.9821  28.9545  31.5440  32.1199

          k =-0.1667-1.0000 0.0000 (  1622 PWs)   bands (ev):

    -5.8272  -2.9382   0.6902   0.7354   5.5575   5.7069  10.5313  10.6474
    13.2944  14.3016  16.2931  17.5606  18.5111  21.7900  22.1492  22.8862
    23.2141  24.2916  25.4082  25.8152  27.3930  28.7504  30.0727  32.3808

          k = 0.6667-0.3333 1.0000 (  1610 PWs)   bands (ev):

    -6.5439  -1.9738   0.4562   1.4456   6.6338   6.6919   8.4345   9.5308
    12.7754  13.5799  15.6247  18.0945  19.2503  19.6214  20.3167  22.2682
    24.6643  25.6477  26.2591  27.9131  28.8220  30.0405  30.6312  32.5793

          k = 0.5833-0.2500 0.9167 (  1611 PWs)   bands (ev):

    -6.1984  -2.4447   0.1592   1.1976   6.6452   7.3474   8.5644   9.7001
    12.3523  13.7248  15.6986  17.9753  19.5049  20.0648  20.8937  23.2328
    24.4230  24.9473  26.4498  27.1997  28.8109  29.5442  30.7533  32.3636

          k = 0.5000-0.1667 0.8333 (  1610 PWs)   bands (ev):

    -6.0470  -2.6461   0.0688   1.1004   6.6339   7.5418   9.1484   9.3306
    11.9395  14.1898  15.4765  17.8057  19.5775  20.3450  21.6135  23.2615
    24.2999  25.0401  25.7829  26.9007  28.9757  29.7484  31.5986  32.0105

          k = 0.6667-0.1667 1.0000 (  1618 PWs)   bands (ev):

    -6.0386  -2.5909   0.2880   0.8059   6.5685   6.8562   8.8090  10.1102
    12.7956  13.8220  15.9856  18.2303  19.2072  20.6744  21.1453  23.0732
    23.8038  24.8465  26.0467  26.7830  28.2417  29.0312  30.4523  32.9680

          k = 0.5833-0.0833 0.9167 (  1615 PWs)   bands (ev):

    -5.8703  -2.7586   0.0579   0.6892   6.7881   7.7202   8.6930   9.4802
    12.4382  14.0618  15.7537  18.2194  19.8358  20.8219  21.9791  22.8820
    23.6133  24.8077  25.5812  26.6921  28.1878  28.9832  31.7016  32.2492

          k = 0.5000 0.0000 0.8333 (  1612 PWs)   bands (ev):

    -5.9400  -2.6801  -0.0380   0.8615   6.8801   7.8976   8.6128   9.3421
    12.1847  13.9299  15.7041  18.4445  19.7738  20.7168  21.2361  23.3973
    23.7657  24.9395  25.8069  26.5337  28.6017  29.2870  31.7903  31.8836

          k =-0.3333-1.0000 0.0000 (  1618 PWs)   bands (ev):

    -5.8041  -2.8566   0.3386   0.4684   6.6126   6.7428   9.5001   9.7764
    12.8774  14.0059  15.9775  17.9331  19.6450  21.6128  22.2618  22.7318
    22.9922  24.2605  25.3772  27.3803  27.8129  28.2964  31.3829  31.8967

          k =-0.5000-1.0000 0.0000 (  1628 PWs)   bands (ev):

    -5.7924  -2.8122   0.1775   0.3497   7.6294   7.6614   8.4724   8.8826
    12.7369  13.9098  15.9175  18.0735  19.9879  21.7531  22.2661  22.3217
    23.0214  25.0800  25.7616  26.0778  27.9530  28.9507  32.4134  33.0878

     the Fermi energy is     3.6650 ev

     Writing output data file Si.save

     init_run     :      0.46s CPU      0.49s WALL (       1 calls)
     electrons    :     92.17s CPU     95.73s WALL (       1 calls)

     Called by init_run:
     wfcinit      :      0.00s CPU      0.00s WALL (       1 calls)
     potinit      :      0.06s CPU      0.06s WALL (       1 calls)

     Called by electrons:
     c_bands      :     92.08s CPU     95.64s WALL (       1 calls)
     v_of_rho     :      0.04s CPU      0.04s WALL (       1 calls)

     Called by c_bands:
     init_us_2    :      0.14s CPU      0.15s WALL (      72 calls)
     cegterg      :     82.80s CPU     85.95s WALL (      72 calls)

     Called by *egterg:
     h_psi        :     62.63s CPU     65.20s WALL (    1323 calls)
     g_psi        :      0.18s CPU      0.19s WALL (    1179 calls)
     cdiaghg      :      5.76s CPU      5.92s WALL (    1251 calls)

     Called by h_psi:
     add_vuspsi   :      1.78s CPU      1.82s WALL (    1323 calls)

     General routines
     calbec       :      1.97s CPU      2.06s WALL (    1323 calls)
     fft          :      0.03s CPU      0.03s WALL (      11 calls)
     fftw         :     55.47s CPU     57.82s WALL (   38882 calls)
     davcio       :      0.02s CPU      0.09s WALL (      72 calls)

     Parallel routines
     fft_scatter  :      1.45s CPU      1.48s WALL (   38893 calls)

     PWSCF        :  1m34.98s CPU     1m38.91s WALL


   This run was terminated on:  15:59:52   1Mar2023            

=------------------------------------------------------------------------------=
   JOB DONE.
=------------------------------------------------------------------------------=
