
     Program PWSCF v.5.1 starts on 13Feb2023 at 20:45:33 

     This program is part of the open-source Quantum ESPRESSO suite
     for quantum simulation of materials; please cite
         "P. Giannozzi et al., J. Phys.:Condens. Matter 21 395502 (2009);
          URL http://www.quantum-espresso.org", 
     in publications or presentations arising from this work. More details at
     http://www.quantum-espresso.org/quote

     Parallel version (MPI), running on     1 processors
     Waiting for input...
     Reading input from standard input

     Current dimensions of program PWSCF are:
     Max number of different atomic species (ntypx) = 10
     Max number of k-points (npk) =  40000
     Max angular momentum in pseudopotentials (lmaxx) =  3

     Atomic positions and unit cell read from directory:
     ./out/Si.save/

               file Si.pbe-mt_fhi.UPF: wavefunction(s)  4f renormalized

     Subspace diagonalization in iterative solution of the eigenvalue problem:
     a serial algorithm will be used


     G-vector sticks info
     --------------------
     sticks:   dense  smooth     PW     G-vecs:    dense   smooth      PW
     Sum         733     733    211                12939    12939    2109



     bravais-lattice index     =            2
     lattice parameter (alat)  =      10.2623  a.u.
     unit-cell volume          =     270.1967 (a.u.)^3
     number of atoms/cell      =            2
     number of atomic types    =            1
     number of electrons       =         3.00
     number of Kohn-Sham states=           10
     kinetic-energy cutoff     =      50.0000  Ry
     charge density cutoff     =     200.0000  Ry
     Exchange-correlation      = PBE ( 1  4  3  4 0)

     celldm(1)=  10.262347  celldm(2)=   0.000000  celldm(3)=   0.000000
     celldm(4)=   0.000000  celldm(5)=   0.000000  celldm(6)=   0.000000

     crystal axes: (cart. coord. in units of alat)
               a(1) = (  -0.500000   0.000000   0.500000 )  
               a(2) = (   0.000000   0.500000   0.500000 )  
               a(3) = (  -0.500000   0.500000   0.000000 )  

     reciprocal axes: (cart. coord. in units 2 pi/alat)
               b(1) = ( -1.000000 -1.000000  1.000000 )  
               b(2) = (  1.000000  1.000000  1.000000 )  
               b(3) = ( -1.000000  1.000000 -1.000000 )  


     PseudoPot. # 1 for Si read from file:
     /home/acedemo/psudo/Si.pbe-mt_fhi.UPF
     MD5 check sum: 259057c2adf9952f9ced37ae3d9e311d
     Pseudo is Norm-conserving, Zval =  4.0
     Generated using FHI98PP, converted with fhi2upf.x v.5.0.2
     Using radial grid of  495 points,  3 beta functions with: 
                l(1) =   0
                l(2) =   1
                l(3) =   3

     atomic species   valence    mass     pseudopotential
        Si             4.00    28.08550     Si( 1.00)

     48 Sym. Ops., with inversion, found (24 have fractional translation)



   Cartesian axes

     site n.     atom                  positions (alat units)
         1           Si  tau(   1) = (   0.0000000   0.0000000   0.0000000  )
         2           Si  tau(   2) = (   0.2500000   0.2500000   0.2500000  )

     number of k points=    51  Marzari-Vanderbilt smearing, width (Ry)=  0.0500
                       cart. coord. in units 2pi/alat
        k(    1) = (   0.5000000   0.5000000   0.5000000), wk =   0.0000000
        k(    2) = (   0.4500000   0.4500000   0.4500000), wk =   0.0014779
        k(    3) = (   0.4000000   0.4000000   0.4000000), wk =   0.0029558
        k(    4) = (   0.3500000   0.3500000   0.3500000), wk =   0.0044337
        k(    5) = (   0.3000000   0.3000000   0.3000000), wk =   0.0059116
        k(    6) = (   0.2500000   0.2500000   0.2500000), wk =   0.0073895
        k(    7) = (   0.2000000   0.2000000   0.2000000), wk =   0.0088674
        k(    8) = (   0.1500000   0.1500000   0.1500000), wk =   0.0103453
        k(    9) = (   0.1000000   0.1000000   0.1000000), wk =   0.0118232
        k(   10) = (   0.0500000   0.0500000   0.0500000), wk =   0.0133011
        k(   11) = (   0.0000000   0.0000000   0.0000000), wk =   0.0147790
        k(   12) = (   0.0000000   0.1000000   0.0000000), wk =   0.0168691
        k(   13) = (   0.0000000   0.2000000   0.0000000), wk =   0.0189591
        k(   14) = (   0.0000000   0.3000000   0.0000000), wk =   0.0210492
        k(   15) = (   0.0000000   0.4000000   0.0000000), wk =   0.0231392
        k(   16) = (   0.0000000   0.5000000   0.0000000), wk =   0.0252293
        k(   17) = (   0.0000000   0.6000000   0.0000000), wk =   0.0273194
        k(   18) = (   0.0000000   0.7000000   0.0000000), wk =   0.0294094
        k(   19) = (   0.0000000   0.8000000   0.0000000), wk =   0.0314995
        k(   20) = (   0.0000000   0.9000000   0.0000000), wk =   0.0335896
        k(   21) = (   0.0000000   1.0000000   0.0000000), wk =   0.0356796
        k(   22) = (   0.0000000   0.9750000   0.0750000), wk =   0.0370621
        k(   23) = (   0.0000000   0.9500000   0.1500000), wk =   0.0384445
        k(   24) = (  -0.0000000   0.9250000   0.2250000), wk =   0.0398270
        k(   25) = (  -0.0000000   0.9000000   0.3000000), wk =   0.0412094
        k(   26) = (   0.0000000   0.8750000   0.3750000), wk =   0.0425919
        k(   27) = (   0.0000000   0.8500000   0.4500000), wk =   0.0439743
        k(   28) = (   0.0000000   0.8250000   0.5250000), wk =   0.0453568
        k(   29) = (  -0.0000000   0.8000000   0.6000000), wk =   0.0467392
        k(   30) = (  -0.0000000   0.7750000   0.6750000), wk =   0.0481217
        k(   31) = (   0.0000000   0.7500000   0.7500000), wk =   0.0495041
        k(   32) = (   0.0000000   0.7250000   0.7750000), wk =   0.0500266
        k(   33) = (   0.0000000   0.7000000   0.8000000), wk =   0.0505491
        k(   34) = (   0.0000000   0.6750000   0.8250000), wk =   0.0510717
        k(   35) = (   0.0000000   0.6500000   0.8500000), wk =   0.0515942
        k(   36) = (   0.0000000   0.6250000   0.8750000), wk =   0.0521167
        k(   37) = (   0.0000000   0.6000000   0.9000000), wk =   0.0526392
        k(   38) = (   0.0000000   0.5750000   0.9250000), wk =   0.0531617
        k(   39) = (   0.0000000   0.5500000   0.9500000), wk =   0.0536842
        k(   40) = (   0.0000000   0.5250000   0.9750000), wk =   0.0542067
        k(   41) = (   0.0000000   0.5000000   1.0000000), wk =   0.0547293
        k(   42) = (   0.0000000   0.4500000   0.9000000), wk =   0.0574942
        k(   43) = (  -0.0000000   0.4000000   0.8000000), wk =   0.0602591
        k(   44) = (  -0.0000000   0.3500000   0.7000000), wk =   0.0630239
        k(   45) = (  -0.0000000   0.3000000   0.6000000), wk =   0.0657888
        k(   46) = (   0.0000000   0.2500000   0.5000000), wk =   0.0685537
        k(   47) = (   0.0000000   0.2000000   0.4000000), wk =   0.0713186
        k(   48) = (   0.0000000   0.1500000   0.3000000), wk =   0.0740835
        k(   49) = (  -0.0000000   0.1000000   0.2000000), wk =   0.0768484
        k(   50) = (  -0.0000000   0.0500000   0.1000000), wk =   0.0796133
        k(   51) = (   0.0000000   0.0000000   0.0000000), wk =   0.0823782

     Dense  grid:    12939 G-vectors     FFT dimensions: (  36,  36,  36)

     Largest allocated arrays     est. size (Mb)     dimensions
        Kohn-Sham Wavefunctions         0.25 Mb     (    1639,   10)
        NL pseudopotentials             0.55 Mb     (    1639,   22)
        Each V/rho on FFT grid          0.71 Mb     (   46656)
        Each G-vector array             0.10 Mb     (   12939)
        G-vector shells                 0.00 Mb     (     180)
     Largest temporary arrays     est. size (Mb)     dimensions
        Auxiliary wavefunctions         1.00 Mb     (    1639,   40)
        Each subspace H/S matrix        0.02 Mb     (      40,   40)
        Each <psi_i|beta_j> matrix      0.00 Mb     (      22,   10)

     The potential is recalculated from file :
     ./out/Si.save/charge-density.dat

     Starting wfc are   32 randomized atomic wfcs

     Band Structure Calculation
     Davidson diagonalization with overlap

     ethr =  5.33E-11,  avg # of iterations = 14.3

     total cpu time spent up to now is       27.9 secs

     End of band structure calculation

          k = 0.5000 0.5000 0.5000 (  1622 PWs)   bands (ev):

    -3.0776   0.1657   5.1812   5.1812   8.9564  11.3649  11.3649  17.2382
    18.0716  18.0716

          k = 0.4500 0.4500 0.4500 (  1610 PWs)   bands (ev):

    -3.1702   0.3134   5.1975   5.1975   8.9743  11.3640  11.3640  16.9649
    17.5088  17.5088

          k = 0.4000 0.4000 0.4000 (  1616 PWs)   bands (ev):

    -3.4050   0.7129   5.2458   5.2458   9.0272  11.3555  11.3555  16.2658
    16.7644  16.7644

          k = 0.3500 0.3500 0.3500 (  1610 PWs)   bands (ev):

    -3.7047   1.2847   5.3243   5.3243   9.1121  11.3217  11.3217  15.3690
    16.1282  16.1282

          k = 0.3000 0.3000 0.3000 (  1615 PWs)   bands (ev):

    -4.0133   1.9690   5.4297   5.4297   9.2236  11.2386  11.2386  14.4021
    15.6518  15.6518

          k = 0.2500 0.2500 0.2500 (  1618 PWs)   bands (ev):

    -4.2996   2.7279   5.5566   5.5566   9.3529  11.0881  11.0881  13.4169
    15.3599  15.3599

          k = 0.2000 0.2000 0.2000 (  1606 PWs)   bands (ev):

    -4.5467   3.5335   5.6964   5.6964   9.4857  10.8753  10.8753  12.4428
    15.2463  15.2463

          k = 0.1500 0.1500 0.1500 (  1600 PWs)   bands (ev):

    -4.7453   4.3559   5.8366   5.8366   9.5967  10.6337  10.6337  11.5161
    15.2704  15.2704

          k = 0.1000 0.1000 0.1000 (  1606 PWs)   bands (ev):

    -4.8901   5.1466   5.9600   5.9600   9.6252  10.4114  10.4114  10.7243
    15.3685  15.3685

          k = 0.0500 0.0500 0.0500 (  1630 PWs)   bands (ev):

    -4.9780   5.7981   6.0464   6.0464   9.4403  10.2551  10.2551  10.2849
    15.4693  15.4693

          k = 0.0000 0.0000 0.0000 (  1639 PWs)   bands (ev):

    -5.0075   6.0776   6.0776   6.0776   9.2581  10.1988  10.1988  10.1988
    15.5114  15.5114

          k = 0.0000 0.1000 0.0000 (  1627 PWs)   bands (ev):

    -4.9681   5.7960   5.9892   5.9892   9.5340  10.1509  10.3400  10.3400
    15.3547  15.5583

          k = 0.0000 0.2000 0.0000 (  1599 PWs)   bands (ev):

    -4.8504   5.1404   5.7579   5.7579  10.0198  10.1523  10.7294  10.7294
    14.9759  15.6990

          k = 0.0000 0.3000 0.0000 (  1607 PWs)   bands (ev):

    -4.6551   4.3395   5.4513   5.4513   9.8364  10.8042  11.2983  11.2983
    14.5912  15.9331

          k = 0.0000 0.4000 0.0000 (  1607 PWs)   bands (ev):

    -4.3835   3.4918   5.1257   5.1257   9.6367  11.2096  11.9889  11.9889
    14.4916  16.2605

          k = 0.0000 0.5000 0.0000 (  1612 PWs)   bands (ev):

    -4.0376   2.6361   4.8171   4.8171   9.4531  11.1804  12.7633  12.7633
    14.8930  16.6807

          k = 0.0000 0.6000 0.0000 (  1620 PWs)   bands (ev):

    -3.6199   1.7905   4.5467   4.5467   9.3110  10.8518  13.5980  13.5980
    15.6793  17.1930

          k = 0.0000 0.7000 0.0000 (  1632 PWs)   bands (ev):

    -3.1335   0.9659   4.3270   4.3270   9.2291  10.4355  14.4762  14.4762
    16.6472  17.7965

          k = 0.0000 0.8000 0.0000 (  1624 PWs)   bands (ev):

    -2.5823   0.1705   4.1657   4.1657   9.2208  10.0390  15.3800  15.3800
    17.6886  18.4903

          k = 0.0000 0.9000 0.0000 (  1608 PWs)   bands (ev):

    -1.9709  -0.5884   4.0674   4.0674   9.2949   9.7067  16.2628  16.2628
    18.6505  18.6505

          k = 0.0000 1.0000 0.0000 (  1604 PWs)   bands (ev):

    -1.3043  -1.3043   4.0343   4.0343   9.4567   9.4567  16.8039  16.8039
    18.0965  18.0965

          k = 0.0000 0.9750 0.0750 (  1618 PWs)   bands (ev):

    -1.4710  -1.1279   4.0069   4.0109   9.4941   9.5955  16.5441  16.6661
    17.8644  17.9855

          k = 0.0000 0.9500 0.1500 (  1622 PWs)   bands (ev):

    -1.6202  -0.9519   3.9259   3.9565   9.7038   9.8976  15.7646  16.3651
    17.4040  18.0088

          k =-0.0000 0.9250 0.2250 (  1622 PWs)   bands (ev):

    -1.7464  -0.7892   3.8049   3.9018  10.0665  10.3397  14.7816  15.9436
    16.9579  18.1053

          k =-0.0000 0.9000 0.3000 (  1623 PWs)   bands (ev):

    -1.8459  -0.6538   3.6648   3.8772  10.5561  10.8955  13.7737  15.4201
    16.5902  18.1037

          k = 0.0000 0.8750 0.3750 (  1614 PWs)   bands (ev):

    -1.9163  -0.5583   3.5259   3.9045  11.1465  11.5328  12.8138  14.8430
    16.2811  17.9354

          k = 0.0000 0.8500 0.4500 (  1612 PWs)   bands (ev):

    -1.9560  -0.5101   3.4046   3.9899  11.7999  11.8150  12.3705  14.2550
    16.0016  17.6359

          k = 0.0000 0.8250 0.5250 (  1611 PWs)   bands (ev):

    -1.9642  -0.5095   3.3129   4.1198  11.0581  12.5421  13.0984  13.6812
    15.7368  17.2580

          k =-0.0000 0.8000 0.6000 (  1614 PWs)   bands (ev):

    -1.9402  -0.5507   3.2585   4.2589  10.4136  13.1277  13.3171  13.9111
    15.4832  16.8447

          k =-0.0000 0.7750 0.6750 (  1621 PWs)   bands (ev):

    -1.8838  -0.6258   3.2461   4.3547   9.9655  12.6225  14.0941  14.7109
    15.2523  16.4571

          k = 0.0000 0.7500 0.7500 (  1624 PWs)   bands (ev):

    -1.7946  -0.7282   3.2778   4.3538   9.7701  12.1545  14.7201  15.2021
    15.2535  16.3334

          k = 0.0000 0.7250 0.7750 (  1616 PWs)   bands (ev):

    -1.7890  -0.7326   3.2810   4.3378   9.8048  12.1578  14.6020  15.1528
    15.3204  16.4305

          k = 0.0000 0.7000 0.8000 (  1621 PWs)   bands (ev):

    -1.7722  -0.7460   3.2907   4.2916   9.9072  12.1677  14.3777  14.9178
    15.5452  16.6536

          k = 0.0000 0.6750 0.8250 (  1620 PWs)   bands (ev):

    -1.7443  -0.7687   3.3068   4.2200  10.0728  12.1840  14.1314  14.6286
    15.7925  16.9190

          k = 0.0000 0.6500 0.8500 (  1616 PWs)   bands (ev):

    -1.7052  -0.8013   3.3292   4.1299  10.2951  12.2067  13.8806  14.3193
    16.0446  17.1852

          k = 0.0000 0.6250 0.8750 (  1616 PWs)   bands (ev):

    -1.6551  -0.8444   3.3577   4.0287  10.5670  12.2354  13.6309  14.0035
    16.2958  17.4257

          k = 0.0000 0.6000 0.9000 (  1613 PWs)   bands (ev):

    -1.5938  -0.8988   3.3921   3.9240  10.8817  12.2698  13.3852  13.6874
    16.5433  17.6134

          k = 0.0000 0.5750 0.9250 (  1615 PWs)   bands (ev):

    -1.5216  -0.9652   3.4321   3.8222  11.2327  12.3092  13.1456  13.3748
    16.7847  17.7175

          k = 0.0000 0.5500 0.9500 (  1615 PWs)   bands (ev):

    -1.4385  -1.0440   3.4774   3.7287  11.6143  12.3521  12.9147  13.0682
    17.0177  17.7165

          k = 0.0000 0.5250 0.9750 (  1615 PWs)   bands (ev):

    -1.3444  -1.1356   3.5277   3.6478  12.0199  12.3926  12.6993  12.7713
    17.2394  17.6165

          k = 0.0000 0.5000 1.0000 (  1628 PWs)   bands (ev):

    -1.2396  -1.2396   3.5824   3.5824  12.3823  12.3823  12.5484  12.5484
    17.4454  17.4454

          k = 0.0000 0.4500 0.9000 (  1616 PWs)   bands (ev):

    -1.7214  -0.7542   3.4424   3.8367  11.8519  12.0383  12.3516  13.8152
    16.5044  17.8626

          k =-0.0000 0.4000 0.8000 (  1616 PWs)   bands (ev):

    -2.2605  -0.1802   3.4769   4.1345  11.3309  11.7414  12.2594  15.1020
    15.6756  17.3772

          k =-0.0000 0.3500 0.7000 (  1618 PWs)   bands (ev):

    -2.8146   0.4805   3.6636   4.4585  10.9068  11.4802  12.2708  14.4096
    16.6326  16.9334

          k =-0.0000 0.3000 0.6000 (  1609 PWs)   bands (ev):

    -3.3463   1.2248   3.9701   4.7905  10.5825  11.2282  12.3772  13.4930
    15.9214  18.4490

          k = 0.0000 0.2500 0.5000 (  1610 PWs)   bands (ev):

    -3.8277   2.0476   4.3627   5.1135  10.3567  10.9585  12.5247  12.6438
    15.2837  17.3177

          k = 0.0000 0.2000 0.4000 (  1613 PWs)   bands (ev):

    -4.2400   2.9398   4.8060   5.4130  10.2227  10.6585  11.8808  12.5104
    14.7758  16.3612

          k = 0.0000 0.1500 0.3000 (  1607 PWs)   bands (ev):

    -4.5707   3.8837   5.2589   5.6759  10.1669  10.3357  11.2201  11.9786
    14.6878  15.8519

          k =-0.0000 0.1000 0.2000 (  1600 PWs)   bands (ev):

    -4.8119   4.8375   5.6686   5.8873   9.9926  10.1658  10.6878  11.0904
    14.9927  15.6247

          k =-0.0000 0.0500 0.1000 (  1623 PWs)   bands (ev):

    -4.9584   5.6825   5.9663   6.0278   9.5608  10.1871  10.3284  10.3991
    15.3532  15.5346

          k = 0.0000 0.0000 0.0000 (  1639 PWs)   bands (ev):

    -5.0075   6.0776   6.0776   6.0776   9.2581  10.1988  10.1988  10.1988
    15.5114  15.5114

     Writing output data file Si.save

     init_run     :      0.17s CPU      0.17s WALL (       1 calls)
     electrons    :     24.45s CPU     25.88s WALL (       1 calls)

     Called by init_run:
     wfcinit      :      0.00s CPU      0.00s WALL (       1 calls)
     potinit      :      0.05s CPU      0.05s WALL (       1 calls)

     Called by electrons:
     c_bands      :     24.45s CPU     25.88s WALL (       1 calls)
     v_of_rho     :      0.04s CPU      0.05s WALL (       1 calls)

     Called by c_bands:
     init_us_2    :      0.09s CPU      0.10s WALL (      51 calls)
     cegterg      :     18.79s CPU     19.89s WALL (      53 calls)

     Called by *egterg:
     h_psi        :     20.51s CPU     21.70s WALL (     831 calls)
     g_psi        :      0.05s CPU      0.05s WALL (     727 calls)
     cdiaghg      :      0.36s CPU      0.36s WALL (     778 calls)

     Called by h_psi:
     add_vuspsi   :      0.59s CPU      0.64s WALL (     831 calls)

     General routines
     calbec       :      0.67s CPU      0.70s WALL (     831 calls)
     fft          :      0.02s CPU      0.02s WALL (      10 calls)
     fftw         :     18.14s CPU     19.20s WALL (   14772 calls)
     davcio       :      0.00s CPU      0.00s WALL (      51 calls)

     Parallel routines
     fft_scatter  :      0.45s CPU      0.47s WALL (   14782 calls)

     PWSCF        :    26.35s CPU        28.07s WALL


   This run was terminated on:  20:46: 1  13Feb2023            

=------------------------------------------------------------------------------=
   JOB DONE.
=------------------------------------------------------------------------------=
