
     Program PWSCF v.5.1 starts on 13Feb2023 at 20:44:52 

     This program is part of the open-source Quantum ESPRESSO suite
     for quantum simulation of materials; please cite
         "P. Giannozzi et al., J. Phys.:Condens. Matter 21 395502 (2009);
          URL http://www.quantum-espresso.org", 
     in publications or presentations arising from this work. More details at
     http://www.quantum-espresso.org/quote

     Parallel version (MPI), running on     1 processors
     Waiting for input...
     Reading input from standard input

     Current dimensions of program PWSCF are:
     Max number of different atomic species (ntypx) = 10
     Max number of k-points (npk) =  40000
     Max angular momentum in pseudopotentials (lmaxx) =  3

     Atomic positions and unit cell read from directory:
     ./out/Si.save/

               file Si.pbe-mt_fhi.UPF: wavefunction(s)  4f renormalized

     Subspace diagonalization in iterative solution of the eigenvalue problem:
     a serial algorithm will be used


     G-vector sticks info
     --------------------
     sticks:   dense  smooth     PW     G-vecs:    dense   smooth      PW
     Sum         733     733    223                12939    12939    2229



     bravais-lattice index     =            2
     lattice parameter (alat)  =      10.2623  a.u.
     unit-cell volume          =     270.1967 (a.u.)^3
     number of atoms/cell      =            2
     number of atomic types    =            1
     number of electrons       =         3.00
     number of Kohn-Sham states=           10
     kinetic-energy cutoff     =      50.0000  Ry
     charge density cutoff     =     200.0000  Ry
     Exchange-correlation      = PBE ( 1  4  3  4 0)

     celldm(1)=  10.262347  celldm(2)=   0.000000  celldm(3)=   0.000000
     celldm(4)=   0.000000  celldm(5)=   0.000000  celldm(6)=   0.000000

     crystal axes: (cart. coord. in units of alat)
               a(1) = (  -0.500000   0.000000   0.500000 )  
               a(2) = (   0.000000   0.500000   0.500000 )  
               a(3) = (  -0.500000   0.500000   0.000000 )  

     reciprocal axes: (cart. coord. in units 2 pi/alat)
               b(1) = ( -1.000000 -1.000000  1.000000 )  
               b(2) = (  1.000000  1.000000  1.000000 )  
               b(3) = ( -1.000000  1.000000 -1.000000 )  


     PseudoPot. # 1 for Si read from file:
     /home/acedemo/psudo/Si.pbe-mt_fhi.UPF
     MD5 check sum: 259057c2adf9952f9ced37ae3d9e311d
     Pseudo is Norm-conserving, Zval =  4.0
     Generated using FHI98PP, converted with fhi2upf.x v.5.0.2
     Using radial grid of  495 points,  3 beta functions with: 
                l(1) =   0
                l(2) =   1
                l(3) =   3

     atomic species   valence    mass     pseudopotential
        Si             4.00    28.08550     Si( 1.00)

     48 Sym. Ops., with inversion, found (24 have fractional translation)



   Cartesian axes

     site n.     atom                  positions (alat units)
         1           Si  tau(   1) = (   0.0000000   0.0000000   0.0000000  )
         2           Si  tau(   2) = (   0.2500000   0.2500000   0.2500000  )

     number of k points=    72 (tetrahedron method)
                       cart. coord. in units 2pi/alat
        k(    1) = (   0.0000000   0.0000000   0.0000000), wk =   0.0011574
        k(    2) = (  -0.0833333   0.0833333  -0.0833333), wk =   0.0092593
        k(    3) = (  -0.1666667   0.1666667  -0.1666667), wk =   0.0092593
        k(    4) = (  -0.2500000   0.2500000  -0.2500000), wk =   0.0092593
        k(    5) = (  -0.3333333   0.3333333  -0.3333333), wk =   0.0092593
        k(    6) = (  -0.4166667   0.4166667  -0.4166667), wk =   0.0092593
        k(    7) = (   0.5000000  -0.5000000   0.5000000), wk =   0.0046296
        k(    8) = (   0.0000000   0.1666667   0.0000000), wk =   0.0069444
        k(    9) = (  -0.0833333   0.2500000  -0.0833333), wk =   0.0277778
        k(   10) = (  -0.1666667   0.3333333  -0.1666667), wk =   0.0277778
        k(   11) = (  -0.2500000   0.4166667  -0.2500000), wk =   0.0277778
        k(   12) = (  -0.3333333   0.5000000  -0.3333333), wk =   0.0277778
        k(   13) = (   0.5833333  -0.4166667   0.5833333), wk =   0.0277778
        k(   14) = (   0.5000000  -0.3333333   0.5000000), wk =   0.0277778
        k(   15) = (   0.4166667  -0.2500000   0.4166667), wk =   0.0277778
        k(   16) = (   0.3333333  -0.1666667   0.3333333), wk =   0.0277778
        k(   17) = (   0.2500000  -0.0833333   0.2500000), wk =   0.0277778
        k(   18) = (   0.1666667  -0.0000000   0.1666667), wk =   0.0138889
        k(   19) = (   0.0000000   0.3333333   0.0000000), wk =   0.0069444
        k(   20) = (  -0.0833333   0.4166667  -0.0833333), wk =   0.0277778
        k(   21) = (  -0.1666667   0.5000000  -0.1666667), wk =   0.0277778
        k(   22) = (  -0.2500000   0.5833333  -0.2500000), wk =   0.0277778
        k(   23) = (   0.6666667  -0.3333333   0.6666667), wk =   0.0277778
        k(   24) = (   0.5833333  -0.2500000   0.5833333), wk =   0.0277778
        k(   25) = (   0.5000000  -0.1666667   0.5000000), wk =   0.0277778
        k(   26) = (   0.4166667  -0.0833333   0.4166667), wk =   0.0277778
        k(   27) = (   0.3333333   0.0000000   0.3333333), wk =   0.0138889
        k(   28) = (   0.0000000   0.5000000   0.0000000), wk =   0.0069444
        k(   29) = (  -0.0833333   0.5833333  -0.0833333), wk =   0.0277778
        k(   30) = (  -0.1666667   0.6666667  -0.1666667), wk =   0.0277778
        k(   31) = (   0.7500000  -0.2500000   0.7500000), wk =   0.0277778
        k(   32) = (   0.6666667  -0.1666667   0.6666667), wk =   0.0277778
        k(   33) = (   0.5833333  -0.0833333   0.5833333), wk =   0.0277778
        k(   34) = (   0.5000000   0.0000000   0.5000000), wk =   0.0138889
        k(   35) = (   0.0000000   0.6666667   0.0000000), wk =   0.0069444
        k(   36) = (  -0.0833333   0.7500000  -0.0833333), wk =   0.0277778
        k(   37) = (   0.8333333  -0.1666667   0.8333333), wk =   0.0277778
        k(   38) = (   0.7500000  -0.0833333   0.7500000), wk =   0.0277778
        k(   39) = (   0.6666667   0.0000000   0.6666667), wk =   0.0138889
        k(   40) = (   0.0000000   0.8333333   0.0000000), wk =   0.0069444
        k(   41) = (   0.9166667  -0.0833333   0.9166667), wk =   0.0277778
        k(   42) = (   0.8333333   0.0000000   0.8333333), wk =   0.0138889
        k(   43) = (   0.0000000  -1.0000000   0.0000000), wk =   0.0034722
        k(   44) = (  -0.1666667   0.3333333   0.0000000), wk =   0.0277778
        k(   45) = (  -0.2500000   0.4166667  -0.0833333), wk =   0.0555556
        k(   46) = (  -0.3333333   0.5000000  -0.1666667), wk =   0.0555556
        k(   47) = (   0.5833333  -0.4166667   0.7500000), wk =   0.0555556
        k(   48) = (   0.5000000  -0.3333333   0.6666667), wk =   0.0277778
        k(   49) = (  -0.1666667   0.5000000   0.0000000), wk =   0.0277778
        k(   50) = (  -0.2500000   0.5833333  -0.0833333), wk =   0.0555556
        k(   51) = (   0.6666667  -0.3333333   0.8333333), wk =   0.0555556
        k(   52) = (   0.5833333  -0.2500000   0.7500000), wk =   0.0555556
        k(   53) = (   0.5000000  -0.1666667   0.6666667), wk =   0.0555556
        k(   54) = (   0.4166667  -0.0833333   0.5833333), wk =   0.0555556
        k(   55) = (   0.3333333   0.0000000   0.5000000), wk =   0.0277778
        k(   56) = (  -0.1666667   0.6666667  -0.0000000), wk =   0.0277778
        k(   57) = (   0.7500000  -0.2500000   0.9166667), wk =   0.0555556
        k(   58) = (   0.6666667  -0.1666667   0.8333333), wk =   0.0555556
        k(   59) = (   0.5833333  -0.0833333   0.7500000), wk =   0.0555556
        k(   60) = (   0.5000000   0.0000000   0.6666667), wk =   0.0277778
        k(   61) = (   0.8333333  -0.1666667   1.0000000), wk =   0.0277778
        k(   62) = (   0.7500000  -0.0833333   0.9166667), wk =   0.0555556
        k(   63) = (   0.6666667   0.0000000   0.8333333), wk =   0.0277778
        k(   64) = (  -0.1666667  -1.0000000   0.0000000), wk =   0.0138889
        k(   65) = (   0.6666667  -0.3333333   1.0000000), wk =   0.0277778
        k(   66) = (   0.5833333  -0.2500000   0.9166667), wk =   0.0555556
        k(   67) = (   0.5000000  -0.1666667   0.8333333), wk =   0.0277778
        k(   68) = (   0.6666667  -0.1666667   1.0000000), wk =   0.0277778
        k(   69) = (   0.5833333  -0.0833333   0.9166667), wk =   0.0555556
        k(   70) = (   0.5000000   0.0000000   0.8333333), wk =   0.0277778
        k(   71) = (  -0.3333333  -1.0000000   0.0000000), wk =   0.0138889
        k(   72) = (  -0.5000000  -1.0000000   0.0000000), wk =   0.0069444

     Dense  grid:    12939 G-vectors     FFT dimensions: (  36,  36,  36)

     Largest allocated arrays     est. size (Mb)     dimensions
        Kohn-Sham Wavefunctions         0.25 Mb     (    1639,   10)
        NL pseudopotentials             0.55 Mb     (    1639,   22)
        Each V/rho on FFT grid          0.71 Mb     (   46656)
        Each G-vector array             0.10 Mb     (   12939)
        G-vector shells                 0.00 Mb     (     180)
     Largest temporary arrays     est. size (Mb)     dimensions
        Auxiliary wavefunctions         1.00 Mb     (    1639,   40)
        Each subspace H/S matrix        0.02 Mb     (      40,   40)
        Each <psi_i|beta_j> matrix      0.00 Mb     (      22,   10)

     The potential is recalculated from file :
     ./out/Si.save/charge-density.dat

     Starting wfc are   32 randomized atomic wfcs

     Band Structure Calculation
     Davidson diagonalization with overlap

     ethr =  5.33E-11,  avg # of iterations = 15.2

     total cpu time spent up to now is       34.8 secs

     End of band structure calculation

          k = 0.0000 0.0000 0.0000 (  1639 PWs)   bands (ev):

    -5.0075   6.0776   6.0776   6.0776   9.2581  10.1988  10.1988  10.1988
    15.5114  15.5114

          k =-0.0833 0.0833-0.0833 (  1612 PWs)   bands (ev):

    -4.9258   5.3877   5.9939   5.9939   9.5922  10.3499  10.3499  10.5262
    15.4053  15.4053

          k =-0.1667 0.1667-0.1667 (  1591 PWs)   bands (ev):

    -4.6848   4.0822   5.7908   5.7908   9.5646  10.7146  10.7146  11.8162
    15.2507  15.2507

          k =-0.2500 0.2500-0.2500 (  1618 PWs)   bands (ev):

    -4.2996   2.7279   5.5566   5.5566   9.3529  11.0881  11.0881  13.4169
    15.3599  15.3599

          k =-0.3333 0.3333-0.3333 (  1616 PWs)   bands (ev):

    -3.8086   1.5025   5.3566   5.3566   9.1466  11.3007  11.3007  15.0510
    15.9499  15.9499

          k =-0.4167 0.4167-0.4167 (  1616 PWs)   bands (ev):

    -3.3159   0.5568   5.2262   5.2262   9.0058  11.3600  11.3600  16.5308
    17.0044  17.0044

          k = 0.5000-0.5000 0.5000 (  1622 PWs)   bands (ev):

    -3.0776   0.1657   5.1812   5.1812   8.9564  11.3649  11.3649  17.2382
    18.0716  18.0716

          k = 0.0000 0.1667 0.0000 (  1615 PWs)   bands (ev):

    -4.8983   5.3831   5.8467   5.8467   9.9287  10.0711  10.5762  10.5762
    15.1152  15.6417

          k =-0.0833 0.2500-0.0833 (  1599 PWs)   bands (ev):

    -4.7096   4.3728   5.6075   5.6950  10.0005  10.2683  11.0038  11.4854
    14.8255  15.7056

          k =-0.1667 0.3333-0.1667 (  1610 PWs)   bands (ev):

    -4.3700   3.0888   5.3662   5.4695   9.8216  10.6589  11.4292  12.7530
    14.9088  15.8522

          k =-0.2500 0.4167-0.2500 (  1606 PWs)   bands (ev):

    -3.9074   1.8485   5.1813   5.2086   9.6134  11.0376  11.6659  13.8122
    15.7588  16.3847

          k =-0.3333 0.5000-0.3333 (  1616 PWs)   bands (ev):

    -3.3950   0.8085   4.9828   5.0818   9.4526  11.2410  11.6957  14.8866
    17.0926  17.3674

          k = 0.5833-0.4167 0.5833 (  1615 PWs)   bands (ev):

    -3.0317   0.2006   4.8323   5.0781   9.3730  11.3396  11.6284  16.1693
    17.5286  18.0433

          k = 0.5000-0.3333 0.5000 (  1616 PWs)   bands (ev):

    -3.1170   0.3358   4.7779   5.1684   9.3871  11.4200  11.5381  16.3382
    16.7234  17.5634

          k = 0.4167-0.2500 0.4167 (  1611 PWs)   bands (ev):

    -3.5648   1.1251   4.8291   5.3404   9.4922  11.4077  11.4660  14.9989
    15.5945  17.5507

          k = 0.3333-0.1667 0.3333 (  1605 PWs)   bands (ev):

    -4.0739   2.2470   4.9878   5.5685   9.6679  11.1536  11.3522  13.6956
    14.9379  16.4020

          k = 0.2500-0.0833 0.2500 (  1600 PWs)   bands (ev):

    -4.5000   3.5026   5.2494   5.8055   9.8611  10.7700  10.9526  12.4445
    14.8078  15.7442

          k = 0.1667-0.0000 0.1667 (  1592 PWs)   bands (ev):

    -4.7907   4.6807   5.6143   5.9750   9.8794  10.4345  10.4835  11.2855
    15.0474  15.5412

          k = 0.0000 0.3333 0.0000 (  1607 PWs)   bands (ev):

    -4.5730   4.0595   5.3427   5.3427   9.7699  10.9809  11.5172  11.5172
    14.5107  16.0319

          k =-0.0833 0.4167-0.0833 (  1616 PWs)   bands (ev):

    -4.2816   3.1278   5.0828   5.0878   9.7960  11.0255  12.0527  12.2932
    14.7251  16.3031

          k =-0.1667 0.5000-0.1667 (  1611 PWs)   bands (ev):

    -3.8549   2.0270   4.7649   4.9005   9.9546  11.1761  12.3920  12.6867
    15.8311  16.8198

          k =-0.2500 0.5833-0.2500 (  1610 PWs)   bands (ev):

    -3.3434   0.9973   4.4404   4.8094   9.9643  11.4967  12.4586  13.2073
    17.3449  17.7560

          k = 0.6667-0.3333 0.6667 (  1607 PWs)   bands (ev):

    -2.8911   0.2535   4.1840   4.8240   9.9407  11.6513  12.3594  14.2891
    17.5569  18.0106

          k = 0.5833-0.2500 0.5833 (  1602 PWs)   bands (ev):

    -2.8128   0.1372   4.0401   4.9407   9.9735  11.7369  12.1979  15.7242
    16.1629  16.5559

          k = 0.5000-0.1667 0.5000 (  1610 PWs)   bands (ev):

    -3.1901   0.7280   4.0384   5.1433  10.0731  11.8102  11.9756  14.7345
    15.3753  17.3296

          k = 0.4167-0.0833 0.4167 (  1613 PWs)   bands (ev):

    -3.7054   1.6706   4.2110   5.3985  10.2041  11.6133  11.7240  13.6062
    14.6919  17.9615

          k = 0.3333 0.0000 0.3333 (  1604 PWs)   bands (ev):

    -4.1649   2.6709   4.6100   5.6481  10.2328  11.1366  11.2714  12.9823
    14.5566  16.6173

          k = 0.0000 0.5000 0.0000 (  1612 PWs)   bands (ev):

    -4.0376   2.6361   4.8171   4.8171   9.4531  11.1804  12.7633  12.7633
    14.8930  16.6807

          k =-0.0833 0.5833-0.0833 (  1617 PWs)   bands (ev):

    -3.6509   1.8167   4.5148   4.6155   9.5308  11.0512  13.1341  13.3093
    15.8987  17.1884

          k =-0.1667 0.6667-0.1667 (  1620 PWs)   bands (ev):

    -3.1554   0.9310   4.1117   4.5142   9.7716  11.3852  13.1063  13.5097
    17.4531  18.0910

          k = 0.7500-0.2500 0.7500 (  1617 PWs)   bands (ev):

    -2.6492   0.1741   3.7330   4.5250   9.8902  12.3154  13.0714  13.4357
    17.6230  18.0291

          k = 0.6667-0.1667 0.6667 (  1607 PWs)   bands (ev):

    -2.4191  -0.1313   3.4834   4.6454   9.9990  12.8275  13.2228  13.9084
    16.0536  16.5187

          k = 0.5833-0.0833 0.5833 (  1611 PWs)   bands (ev):

    -2.7127   0.2557   3.4340   4.8590  10.1556  12.8412  12.8704  14.5507
    15.3521  15.5117

          k = 0.5000 0.0000 0.5000 (  1604 PWs)   bands (ev):

    -3.2242   0.9706   3.6571   5.1309  10.2996  12.2861  12.5125  13.6248
    14.7592  17.2539

          k = 0.0000 0.6667 0.0000 (  1624 PWs)   bands (ev):

    -3.3030   1.2379   4.3940   4.3940   9.2488  10.5756  14.1796  14.1796
    16.3127  17.5853

          k =-0.0833 0.7500-0.0833 (  1618 PWs)   bands (ev):

    -2.8323   0.5180   4.1090   4.2723   9.4051  10.4342  14.5286  14.6834
    17.5482  18.3429

          k = 0.8333-0.1667 0.8333 (  1619 PWs)   bands (ev):

    -2.3007  -0.1709   3.6876   4.2653   9.6419  10.9804  14.5019  14.7305
    17.7151  18.0957

          k = 0.7500-0.0833 0.7500 (  1620 PWs)   bands (ev):

    -1.9537  -0.5646   3.3301   4.3732   9.7854  12.1858  14.4276  14.4669
    16.0479  16.6350

          k = 0.6667 0.0000 0.6667 (  1612 PWs)   bands (ev):

    -2.2058  -0.2833   3.2050   4.5820   9.9714  13.7167  13.8342  14.2304
    14.5990  15.6766

          k = 0.0000 0.8333 0.0000 (  1628 PWs)   bands (ev):

    -2.3850  -0.0868   4.1258   4.1258   9.2360   9.9198  15.6812  15.6812
    18.0423  18.7414

          k = 0.9167-0.0833 0.9167 (  1622 PWs)   bands (ev):

    -1.8473  -0.7142   3.9006   4.0938   9.4564   9.9256  16.0434  16.0574
    17.8677  18.1421

          k = 0.8333 0.0000 0.8333 (  1614 PWs)   bands (ev):

    -1.5091  -1.0477   3.5432   4.1798   9.6029  10.8022  15.6266  15.9399
    16.2823  17.0587

          k = 0.0000-1.0000 0.0000 (  1604 PWs)   bands (ev):

    -1.3043  -1.3043   4.0343   4.0343   9.4567   9.4567  16.8039  16.8039
    18.0965  18.0965

          k =-0.1667 0.3333 0.0000 (  1603 PWs)   bands (ev):

    -4.4701   3.5651   5.1098   5.5932  10.1780  10.4449  11.4277  12.2197
    14.6580  15.9807

          k =-0.2500 0.4167-0.0833 (  1607 PWs)   bands (ev):

    -4.0865   2.4822   4.7122   5.3986  10.2229  10.7653  11.8958  12.8629
    14.9597  16.6278

          k =-0.3333 0.5000-0.1667 (  1604 PWs)   bands (ev):

    -3.5955   1.3866   4.4625   5.1685  10.0835  11.1604  12.1202  13.5481
    15.7750  17.8120

          k = 0.5833-0.4167 0.7500 (  1612 PWs)   bands (ev):

    -3.0975   0.4957   4.3288   4.9923   9.9696  11.3195  12.1655  14.6027
    16.9497  17.4917

          k = 0.5000-0.3333 0.6667 (  1602 PWs)   bands (ev):

    -2.8526   0.1158   4.2877   4.9266   9.9280  11.3458  12.1652  15.9075
    16.0401  17.9946

          k =-0.1667 0.5000 0.0000 (  1617 PWs)   bands (ev):

    -3.9438   2.3446   4.5909   4.9827   9.8794  11.1538  12.4640  12.7072
    15.2744  16.8612

          k =-0.2500 0.5833-0.0833 (  1611 PWs)   bands (ev):

    -3.4816   1.4215   4.2061   4.7902  10.1671  11.3573  12.4602  13.1984
    16.1475  17.9932

          k = 0.6667-0.3333 0.8333 (  1617 PWs)   bands (ev):

    -2.9626   0.5523   3.9209   4.6436  10.2819  11.7125  12.8020  13.3913
    17.2900  17.5620

          k = 0.5833-0.2500 0.7500 (  1607 PWs)   bands (ev):

    -2.5871   0.0091   3.7316   4.6249  10.3375  11.7322  13.2119  14.1301
    15.9058  18.0722

          k = 0.5000-0.1667 0.6667 (  1605 PWs)   bands (ev):

    -2.6905   0.1524   3.6674   4.7394  10.4357  11.6635  13.1372  14.4610
    15.6415  16.7966

          k = 0.4167-0.0833 0.5833 (  1610 PWs)   bands (ev):

    -3.1579   0.8488   3.7746   4.9535  10.5729  11.4687  12.9154  13.4025
    15.6572  17.3243

          k = 0.3333 0.0000 0.5000 (  1606 PWs)   bands (ev):

    -3.6674   1.7051   4.1121   5.2057  10.6661  10.9535  12.5673  12.8399
    15.0836  18.0226

          k =-0.1667 0.6667-0.0000 (  1626 PWs)   bands (ev):

    -3.2242   1.0941   4.1860   4.4432   9.6820  10.8884  13.2825  14.1566
    16.6661  18.0954

          k = 0.7500-0.2500 0.9167 (  1621 PWs)   bands (ev):

    -2.7064   0.3403   3.8193   4.3029  10.0254  11.2325  13.1478  14.6084
    17.5523  17.7594

          k = 0.6667-0.1667 0.8333 (  1616 PWs)   bands (ev):

    -2.2373  -0.2538   3.4825   4.3031  10.1909  12.2928  12.9762  14.6226
    15.9881  18.0731

          k = 0.5833-0.0833 0.7500 (  1614 PWs)   bands (ev):

    -2.2045  -0.2912   3.3009   4.4396  10.3482  12.7478  13.7812  14.1731
    14.7668  16.7571

          k = 0.5000 0.0000 0.6667 (  1621 PWs)   bands (ev):

    -2.6428   0.2297   3.3748   4.6765  10.5341  12.2807  13.3451  14.0391
    15.5343  15.8567

          k = 0.8333-0.1667 1.0000 (  1617 PWs)   bands (ev):

    -2.3304  -0.1330   3.9509   4.0764   9.6631  10.2970  14.6067  15.6670
    17.8989  18.1272

          k = 0.7500-0.0833 0.9167 (  1620 PWs)   bands (ev):

    -1.8029  -0.7198   3.6072   4.0506   9.9766  10.8903  14.4450  15.6998
    16.5145  17.9824

          k = 0.6667 0.0000 0.8333 (  1620 PWs)   bands (ev):

    -1.7325  -0.7785   3.3136   4.1916  10.1409  12.1909  14.0479  14.5268
    15.8764  17.0090

          k =-0.1667-1.0000 0.0000 (  1622 PWs)   bands (ev):

    -1.2886  -1.2886   3.9111   3.9111   9.8654   9.8654  15.9995  15.9995
    17.5949  17.5949

          k = 0.6667-0.3333 1.0000 (  1610 PWs)   bands (ev):

    -2.9959   0.7195   3.7541   4.5692  10.7876  11.3966  12.2968  14.0987
    16.3878  17.4474

          k = 0.5833-0.2500 0.9167 (  1611 PWs)   bands (ev):

    -2.4799   0.0395   3.5011   4.3574  11.0973  11.6159  12.6912  14.5678
    15.7141  17.2172

          k = 0.5000-0.1667 0.8333 (  1610 PWs)   bands (ev):

    -2.2032  -0.2991   3.4235   4.2729  11.1273  11.6273  13.8708  14.0304
    14.8479  18.1680

          k = 0.6667-0.1667 1.0000 (  1618 PWs)   bands (ev):

    -2.1790  -0.2755   3.6009   4.0203  10.7714  11.3060  12.9314  15.4452
    16.1330  17.8025

          k = 0.5833-0.0833 0.9167 (  1615 PWs)   bands (ev):

    -1.7553  -0.7290   3.4183   3.9236  11.1164  12.3166  12.7126  14.0602
    16.2422  18.0238

          k = 0.5000 0.0000 0.8333 (  1612 PWs)   bands (ev):

    -1.9650  -0.5047   3.3396   4.0733  11.3044  12.2944  12.8376  13.8699
    15.8239  17.3900

          k =-0.3333-1.0000 0.0000 (  1618 PWs)   bands (ev):

    -1.2562  -1.2562   3.6863   3.6863  10.9469  10.9469  14.2336  14.2336
    17.4637  17.4637

          k =-0.5000-1.0000 0.0000 (  1628 PWs)   bands (ev):

    -1.2396  -1.2396   3.5824   3.5824  12.3823  12.3823  12.5484  12.5484
    17.4454  17.4454

     the Fermi energy is     0.4297 ev

     Writing output data file Si.save

     init_run     :      0.19s CPU      0.20s WALL (       1 calls)
     electrons    :     31.82s CPU     34.16s WALL (       1 calls)

     Called by init_run:
     wfcinit      :      0.00s CPU      0.00s WALL (       1 calls)
     potinit      :      0.05s CPU      0.05s WALL (       1 calls)

     Called by electrons:
     c_bands      :     31.73s CPU     34.07s WALL (       1 calls)
     v_of_rho     :      0.05s CPU      0.05s WALL (       1 calls)

     Called by c_bands:
     init_us_2    :      0.10s CPU      0.11s WALL (      72 calls)
     cegterg      :     24.81s CPU     26.71s WALL (      72 calls)

     Called by *egterg:
     h_psi        :     26.68s CPU     28.54s WALL (    1241 calls)
     g_psi        :      0.08s CPU      0.08s WALL (    1097 calls)
     cdiaghg      :      0.50s CPU      0.53s WALL (    1169 calls)

     Called by h_psi:
     add_vuspsi   :      0.78s CPU      0.85s WALL (    1241 calls)

     General routines
     calbec       :      0.85s CPU      0.91s WALL (    1241 calls)
     fft          :      0.02s CPU      0.02s WALL (      10 calls)
     fftw         :     23.73s CPU     25.36s WALL (   21182 calls)
     davcio       :      0.01s CPU      0.04s WALL (      72 calls)

     Parallel routines
     fft_scatter  :      0.58s CPU      0.61s WALL (   21192 calls)

     PWSCF        :    33.75s CPU        36.15s WALL


   This run was terminated on:  20:45:28  13Feb2023            

=------------------------------------------------------------------------------=
   JOB DONE.
=------------------------------------------------------------------------------=
