
     Program PWSCF v.5.1 starts on 13Feb2023 at 20:44:22 

     This program is part of the open-source Quantum ESPRESSO suite
     for quantum simulation of materials; please cite
         "P. Giannozzi et al., J. Phys.:Condens. Matter 21 395502 (2009);
          URL http://www.quantum-espresso.org", 
     in publications or presentations arising from this work. More details at
     http://www.quantum-espresso.org/quote

     Parallel version (MPI), running on     1 processors
     Waiting for input...
     Reading input from standard input

     Current dimensions of program PWSCF are:
     Max number of different atomic species (ntypx) = 10
     Max number of k-points (npk) =  40000
     Max angular momentum in pseudopotentials (lmaxx) =  3
               file Si.pbe-mt_fhi.UPF: wavefunction(s)  4f renormalized

     Subspace diagonalization in iterative solution of the eigenvalue problem:
     a serial algorithm will be used


     G-vector sticks info
     --------------------
     sticks:   dense  smooth     PW     G-vecs:    dense   smooth      PW
     Sum         733     733    211                12939    12939    2109



     bravais-lattice index     =            2
     lattice parameter (alat)  =      10.2623  a.u.
     unit-cell volume          =     270.1967 (a.u.)^3
     number of atoms/cell      =            2
     number of atomic types    =            1
     number of electrons       =         3.00
     number of Kohn-Sham states=           10
     kinetic-energy cutoff     =      50.0000  Ry
     charge density cutoff     =     200.0000  Ry
     convergence threshold     =      1.6E-09
     mixing beta               =       0.3000
     number of iterations used =            8  plain     mixing
     Exchange-correlation      = PBE ( 1  4  3  4 0)

     celldm(1)=  10.262347  celldm(2)=   0.000000  celldm(3)=   0.000000
     celldm(4)=   0.000000  celldm(5)=   0.000000  celldm(6)=   0.000000

     crystal axes: (cart. coord. in units of alat)
               a(1) = (  -0.500000   0.000000   0.500000 )  
               a(2) = (   0.000000   0.500000   0.500000 )  
               a(3) = (  -0.500000   0.500000   0.000000 )  

     reciprocal axes: (cart. coord. in units 2 pi/alat)
               b(1) = ( -1.000000 -1.000000  1.000000 )  
               b(2) = (  1.000000  1.000000  1.000000 )  
               b(3) = ( -1.000000  1.000000 -1.000000 )  


     PseudoPot. # 1 for Si read from file:
     /home/acedemo/psudo/Si.pbe-mt_fhi.UPF
     MD5 check sum: 259057c2adf9952f9ced37ae3d9e311d
     Pseudo is Norm-conserving, Zval =  4.0
     Generated using FHI98PP, converted with fhi2upf.x v.5.0.2
     Using radial grid of  495 points,  3 beta functions with: 
                l(1) =   0
                l(2) =   1
                l(3) =   3

     atomic species   valence    mass     pseudopotential
        Si             4.00    28.08550     Si( 1.00)

     48 Sym. Ops., with inversion, found (24 have fractional translation)



   Cartesian axes

     site n.     atom                  positions (alat units)
         1           Si  tau(   1) = (   0.0000000   0.0000000   0.0000000  )
         2           Si  tau(   2) = (   0.2500000   0.2500000   0.2500000  )

     number of k points=    10  Marzari-Vanderbilt smearing, width (Ry)=  0.0500
                       cart. coord. in units 2pi/alat
        k(    1) = (   0.0000000   0.0000000   0.0000000), wk =   0.0160000
        k(    2) = (  -0.2000000   0.2000000  -0.2000000), wk =   0.1280000
        k(    3) = (  -0.4000000   0.4000000  -0.4000000), wk =   0.1280000
        k(    4) = (   0.0000000   0.4000000   0.0000000), wk =   0.0960000
        k(    5) = (  -0.2000000   0.6000000  -0.2000000), wk =   0.3840000
        k(    6) = (   0.6000000  -0.2000000   0.6000000), wk =   0.3840000
        k(    7) = (   0.4000000   0.0000000   0.4000000), wk =   0.1920000
        k(    8) = (   0.0000000   0.8000000   0.0000000), wk =   0.0960000
        k(    9) = (   0.8000000   0.0000000   0.8000000), wk =   0.1920000
        k(   10) = (   0.6000000  -0.2000000   1.0000000), wk =   0.3840000

     Dense  grid:    12939 G-vectors     FFT dimensions: (  36,  36,  36)

     Largest allocated arrays     est. size (Mb)     dimensions
        Kohn-Sham Wavefunctions         0.25 Mb     (    1639,   10)
        NL pseudopotentials             0.55 Mb     (    1639,   22)
        Each V/rho on FFT grid          0.71 Mb     (   46656)
        Each G-vector array             0.10 Mb     (   12939)
        G-vector shells                 0.00 Mb     (     180)
     Largest temporary arrays     est. size (Mb)     dimensions
        Auxiliary wavefunctions         1.00 Mb     (    1639,   40)
        Each subspace H/S matrix        0.02 Mb     (      40,   40)
        Each <psi_i|beta_j> matrix      0.00 Mb     (      22,   10)
        Arrays for rho mixing           5.70 Mb     (   46656,    8)

     Initial potential from superposition of free atoms

     starting charge    7.99859, renormalised to    3.00000
     Starting wfc are   32 randomized atomic wfcs

     total cpu time spent up to now is        1.3 secs

     per-process dynamical memory:    15.9 Mb

     Self-consistent Calculation

     iteration #  1     ecut=    50.00 Ry     beta=0.30
     Davidson diagonalization with overlap
     ethr =  1.00E-02,  avg # of iterations =  2.1

     total cpu time spent up to now is        2.6 secs

     total energy              =     -17.09289958 Ry
     Harris-Foulkes estimate   =     -17.09095076 Ry
     estimated scf accuracy    <       0.03313118 Ry

     iteration #  2     ecut=    50.00 Ry     beta=0.30
     Davidson diagonalization with overlap
     ethr =  1.10E-03,  avg # of iterations =  1.0

     total cpu time spent up to now is        3.6 secs

     total energy              =     -17.09726515 Ry
     Harris-Foulkes estimate   =     -17.09315633 Ry
     estimated scf accuracy    <       0.01606190 Ry

     iteration #  3     ecut=    50.00 Ry     beta=0.30
     Davidson diagonalization with overlap
     ethr =  5.35E-04,  avg # of iterations =  1.0

     total cpu time spent up to now is        4.7 secs

     total energy              =     -17.09749498 Ry
     Harris-Foulkes estimate   =     -17.09747771 Ry
     estimated scf accuracy    <       0.00002142 Ry

     iteration #  4     ecut=    50.00 Ry     beta=0.30
     Davidson diagonalization with overlap
     ethr =  7.14E-07,  avg # of iterations =  3.3

     total cpu time spent up to now is        6.1 secs

     total energy              =     -17.09751929 Ry
     Harris-Foulkes estimate   =     -17.09751403 Ry
     estimated scf accuracy    <       0.00000475 Ry

     iteration #  5     ecut=    50.00 Ry     beta=0.30
     Davidson diagonalization with overlap
     ethr =  1.58E-07,  avg # of iterations =  1.1

     total cpu time spent up to now is        7.1 secs

     total energy              =     -17.09752098 Ry
     Harris-Foulkes estimate   =     -17.09751975 Ry
     estimated scf accuracy    <       0.00000097 Ry

     iteration #  6     ecut=    50.00 Ry     beta=0.30
     Davidson diagonalization with overlap
     ethr =  3.25E-08,  avg # of iterations =  2.0

     total cpu time spent up to now is        8.3 secs

     total energy              =     -17.09752146 Ry
     Harris-Foulkes estimate   =     -17.09752127 Ry
     estimated scf accuracy    <       0.00000001 Ry

     iteration #  7     ecut=    50.00 Ry     beta=0.30
     Davidson diagonalization with overlap
     ethr =  3.64E-10,  avg # of iterations =  3.0

     total cpu time spent up to now is        9.3 secs

     total energy              =     -17.09752149 Ry
     Harris-Foulkes estimate   =     -17.09752149 Ry
     estimated scf accuracy    <          8.4E-09 Ry

     iteration #  8     ecut=    50.00 Ry     beta=0.30
     Davidson diagonalization with overlap
     ethr =  2.80E-10,  avg # of iterations =  2.0

     total cpu time spent up to now is       10.1 secs

     End of self-consistent calculation

          k = 0.0000 0.0000 0.0000 (  1639 PWs)   bands (ev):

    -5.0075   6.0776   6.0776   6.0776   9.2582  10.1988  10.1988  10.1988
    15.5114  15.5114

          k =-0.2000 0.2000-0.2000 (  1606 PWs)   bands (ev):

    -4.5467   3.5335   5.6964   5.6964   9.4857  10.8753  10.8753  12.4428
    15.2463  15.2463

          k =-0.4000 0.4000-0.4000 (  1616 PWs)   bands (ev):

    -3.4051   0.7129   5.2457   5.2457   9.0272  11.3555  11.3555  16.2658
    16.7644  16.7644

          k = 0.0000 0.4000 0.0000 (  1607 PWs)   bands (ev):

    -4.3835   3.4918   5.1257   5.1257   9.6367  11.2096  11.9889  11.9889
    14.4915  16.2605

          k =-0.2000 0.6000-0.2000 (  1619 PWs)   bands (ev):

    -3.3897   1.1998   4.3364   4.6990   9.9290  11.6194  12.7203  12.8526
    17.0877  17.6852

          k = 0.6000-0.2000 0.6000 (  1596 PWs)   bands (ev):

    -2.7023   0.0977   3.7595   4.8604  10.0664  12.1042  12.5270  15.2930
    15.8025  16.2550

          k = 0.4000 0.0000 0.4000 (  1610 PWs)   bands (ev):

    -3.8175   1.9420   4.1952   5.4574  10.3124  11.5445  11.7143  13.2705
    14.5439  17.7001

          k = 0.0000 0.8000 0.0000 (  1624 PWs)   bands (ev):

    -2.5823   0.1705   4.1657   4.1657   9.2208  10.0390  15.3800  15.3800
    17.6886  18.4903

          k = 0.8000 0.0000 0.8000 (  1622 PWs)   bands (ev):

    -1.6071  -0.9351   3.4190   4.2421   9.6638  11.3079  15.2666  15.6673
    15.8416  16.7649

          k = 0.6000-0.2000 1.0000 (  1616 PWs)   bands (ev):

    -2.2605  -0.1802   3.4769   4.1345  11.3309  11.7414  12.2594  15.1020
    15.6755  17.3772

     the Fermi energy is     0.4725 ev

!    total energy              =     -17.09752149 Ry
     Harris-Foulkes estimate   =     -17.09752149 Ry
     estimated scf accuracy    <          1.3E-10 Ry

     The total energy is the sum of the following terms:

     one-electron contribution =       0.87892035 Ry
     hartree contribution      =       0.26426478 Ry
     xc contribution           =      -1.44318378 Ry
     ewald contribution        =     -16.79708774 Ry
     smearing contrib. (-TS)   =      -0.00043510 Ry

     convergence has been achieved in   8 iterations

     Forces acting on atoms (Ry/au):

     atom    1 type  1   force =    -0.00000000   -0.00000000    0.00000000
     atom    2 type  1   force =     0.00000000    0.00000000   -0.00000000

     Total force =     0.000000     Total SCF correction =     0.000000


     entering subroutine stress ...

          total   stress  (Ry/bohr**3)                   (kbar)     P=-1819.01
  -0.01236538   0.00000000  -0.00000000      -1819.01      0.00     -0.00
   0.00000000  -0.01236538   0.00000000          0.00  -1819.01      0.00
   0.00000000   0.00000000  -0.01236538          0.00      0.00  -1819.01


     Writing output data file Si.save

     init_run     :      1.24s CPU      1.29s WALL (       1 calls)
     electrons    :      7.95s CPU      8.78s WALL (       1 calls)
     forces       :      0.07s CPU      0.13s WALL (       1 calls)
     stress       :      0.63s CPU      0.81s WALL (       1 calls)

     Called by init_run:
     wfcinit      :      1.09s CPU      1.11s WALL (       1 calls)
     potinit      :      0.05s CPU      0.06s WALL (       1 calls)

     Called by electrons:
     c_bands      :      6.09s CPU      6.75s WALL (       8 calls)
     sum_band     :      1.38s CPU      1.49s WALL (       8 calls)
     v_of_rho     :      0.48s CPU      0.55s WALL (       9 calls)
     mix_rho      :      0.03s CPU      0.03s WALL (       8 calls)

     Called by c_bands:
     init_us_2    :      0.31s CPU      0.35s WALL (     190 calls)
     cegterg      :      5.86s CPU      6.50s WALL (      80 calls)

     Called by *egterg:
     h_psi        :      6.24s CPU      6.83s WALL (     245 calls)
     g_psi        :      0.01s CPU      0.01s WALL (     155 calls)
     cdiaghg      :      0.06s CPU      0.06s WALL (     235 calls)

     Called by h_psi:
     add_vuspsi   :      0.17s CPU      0.18s WALL (     245 calls)

     General routines
     calbec       :      0.21s CPU      0.23s WALL (     265 calls)
     fft          :      0.20s CPU      0.23s WALL (     106 calls)
     fftw         :      6.55s CPU      7.15s WALL (    5088 calls)
     davcio       :      0.00s CPU      0.00s WALL (      10 calls)

     Parallel routines
     fft_scatter  :      0.19s CPU      0.21s WALL (    5194 calls)

     PWSCF        :    10.00s CPU        11.13s WALL


   This run was terminated on:  20:44:33  13Feb2023            

=------------------------------------------------------------------------------=
   JOB DONE.
=------------------------------------------------------------------------------=
