
     Program PWSCF v.5.1 starts on 12Feb2023 at 20:20: 2 

     This program is part of the open-source Quantum ESPRESSO suite
     for quantum simulation of materials; please cite
         "P. Giannozzi et al., J. Phys.:Condens. Matter 21 395502 (2009);
          URL http://www.quantum-espresso.org", 
     in publications or presentations arising from this work. More details at
     http://www.quantum-espresso.org/quote

     Parallel version (MPI), running on     1 processors
     Waiting for input...
     Reading input from standard input
Warning: card   SI    0.0000000000D0   0.5000000000D0   0.5000000000D0 ignored
Warning: card   SI    0.2500000000D0   0.7500000000D0   0.7500000000D0 ignored
Warning: card   SI   -0.5000000000D0   0.0000000000D0   0.5000000000D0 ignored
Warning: card   SI   -0.2500000000D0   0.2500000000D0   0.7500000000D0 ignored
Warning: card   SI   -0.5000000000D0   0.5000000000D0   0.10000000000D0 ignored
Warning: card   SI   -0.2500000000D0   0.7500000000D0   1.25000000000D0 ignored

     Current dimensions of program PWSCF are:
     Max number of different atomic species (ntypx) = 10
     Max number of k-points (npk) =  40000
     Max angular momentum in pseudopotentials (lmaxx) =  3

     Atomic positions and unit cell read from directory:
     ./out/Si.save/

               file Si.pbe-mt_fhi.UPF: wavefunction(s)  4f renormalized
               file P.pbe-mt_fhi.UPF: wavefunction(s)  4f renormalized

     Subspace diagonalization in iterative solution of the eigenvalue problem:
     a serial algorithm will be used


     G-vector sticks info
     --------------------
     sticks:   dense  smooth     PW     G-vecs:    dense   smooth      PW
     Sum         733     733    211                12939    12939    2109



     bravais-lattice index     =            2
     lattice parameter (alat)  =      10.2623  a.u.
     unit-cell volume          =     270.1967 (a.u.)^3
     number of atoms/cell      =            2
     number of atomic types    =            2
     number of electrons       =         9.00
     number of Kohn-Sham states=           24
     kinetic-energy cutoff     =      50.0000  Ry
     charge density cutoff     =     200.0000  Ry
     Exchange-correlation      = PBE ( 1  4  3  4 0)

     celldm(1)=  10.262347  celldm(2)=   0.000000  celldm(3)=   0.000000
     celldm(4)=   0.000000  celldm(5)=   0.000000  celldm(6)=   0.000000

     crystal axes: (cart. coord. in units of alat)
               a(1) = (  -0.500000   0.000000   0.500000 )  
               a(2) = (   0.000000   0.500000   0.500000 )  
               a(3) = (  -0.500000   0.500000   0.000000 )  

     reciprocal axes: (cart. coord. in units 2 pi/alat)
               b(1) = ( -1.000000 -1.000000  1.000000 )  
               b(2) = (  1.000000  1.000000  1.000000 )  
               b(3) = ( -1.000000  1.000000 -1.000000 )  


     PseudoPot. # 1 for Si read from file:
     /home/acedemo/psudo/Si.pbe-mt_fhi.UPF
     MD5 check sum: 259057c2adf9952f9ced37ae3d9e311d
     Pseudo is Norm-conserving, Zval =  4.0
     Generated using FHI98PP, converted with fhi2upf.x v.5.0.2
     Using radial grid of  495 points,  3 beta functions with: 
                l(1) =   0
                l(2) =   1
                l(3) =   3

     PseudoPot. # 2 for  P read from file:
     /home/acedemo/psudo/P.pbe-mt_fhi.UPF
     MD5 check sum: 7191c457fb61afa58d0f00d0e4a443c1
     Pseudo is Norm-conserving, Zval =  5.0
     Generated using FHI98PP, converted with fhi2upf.x v.5.0.2
     Using radial grid of  499 points,  3 beta functions with: 
                l(1) =   0
                l(2) =   1
                l(3) =   3

     atomic species   valence    mass     pseudopotential
        Si             4.00    28.08550     Si( 1.00)
        P              5.00    30.97376      P( 1.00)

     24 Sym. Ops. (no inversion) found



   Cartesian axes

     site n.     atom                  positions (alat units)
         1           P   tau(   1) = (   0.0000000   0.0000000   0.0000000  )
         2           Si  tau(   2) = (   0.2500000   0.2500000   0.2500000  )

     number of k points=    51  Marzari-Vanderbilt smearing, width (Ry)=  0.0500
                       cart. coord. in units 2pi/alat
        k(    1) = (   0.5000000   0.5000000   0.5000000), wk =   0.0000000
        k(    2) = (   0.4500000   0.4500000   0.4500000), wk =   0.0014779
        k(    3) = (   0.4000000   0.4000000   0.4000000), wk =   0.0029558
        k(    4) = (   0.3500000   0.3500000   0.3500000), wk =   0.0044337
        k(    5) = (   0.3000000   0.3000000   0.3000000), wk =   0.0059116
        k(    6) = (   0.2500000   0.2500000   0.2500000), wk =   0.0073895
        k(    7) = (   0.2000000   0.2000000   0.2000000), wk =   0.0088674
        k(    8) = (   0.1500000   0.1500000   0.1500000), wk =   0.0103453
        k(    9) = (   0.1000000   0.1000000   0.1000000), wk =   0.0118232
        k(   10) = (   0.0500000   0.0500000   0.0500000), wk =   0.0133011
        k(   11) = (   0.0000000   0.0000000   0.0000000), wk =   0.0147790
        k(   12) = (   0.0000000   0.1000000   0.0000000), wk =   0.0168691
        k(   13) = (   0.0000000   0.2000000   0.0000000), wk =   0.0189591
        k(   14) = (   0.0000000   0.3000000   0.0000000), wk =   0.0210492
        k(   15) = (   0.0000000   0.4000000   0.0000000), wk =   0.0231392
        k(   16) = (   0.0000000   0.5000000   0.0000000), wk =   0.0252293
        k(   17) = (   0.0000000   0.6000000   0.0000000), wk =   0.0273194
        k(   18) = (   0.0000000   0.7000000   0.0000000), wk =   0.0294094
        k(   19) = (   0.0000000   0.8000000   0.0000000), wk =   0.0314995
        k(   20) = (   0.0000000   0.9000000   0.0000000), wk =   0.0335896
        k(   21) = (   0.0000000   1.0000000   0.0000000), wk =   0.0356796
        k(   22) = (   0.0000000   0.9750000   0.0750000), wk =   0.0370621
        k(   23) = (   0.0000000   0.9500000   0.1500000), wk =   0.0384445
        k(   24) = (  -0.0000000   0.9250000   0.2250000), wk =   0.0398270
        k(   25) = (  -0.0000000   0.9000000   0.3000000), wk =   0.0412094
        k(   26) = (   0.0000000   0.8750000   0.3750000), wk =   0.0425919
        k(   27) = (   0.0000000   0.8500000   0.4500000), wk =   0.0439743
        k(   28) = (   0.0000000   0.8250000   0.5250000), wk =   0.0453568
        k(   29) = (  -0.0000000   0.8000000   0.6000000), wk =   0.0467392
        k(   30) = (  -0.0000000   0.7750000   0.6750000), wk =   0.0481217
        k(   31) = (   0.0000000   0.7500000   0.7500000), wk =   0.0495041
        k(   32) = (   0.0000000   0.7250000   0.7750000), wk =   0.0500266
        k(   33) = (   0.0000000   0.7000000   0.8000000), wk =   0.0505491
        k(   34) = (   0.0000000   0.6750000   0.8250000), wk =   0.0510717
        k(   35) = (   0.0000000   0.6500000   0.8500000), wk =   0.0515942
        k(   36) = (   0.0000000   0.6250000   0.8750000), wk =   0.0521167
        k(   37) = (   0.0000000   0.6000000   0.9000000), wk =   0.0526392
        k(   38) = (   0.0000000   0.5750000   0.9250000), wk =   0.0531617
        k(   39) = (   0.0000000   0.5500000   0.9500000), wk =   0.0536842
        k(   40) = (   0.0000000   0.5250000   0.9750000), wk =   0.0542067
        k(   41) = (   0.0000000   0.5000000   1.0000000), wk =   0.0547293
        k(   42) = (   0.0000000   0.4500000   0.9000000), wk =   0.0574942
        k(   43) = (  -0.0000000   0.4000000   0.8000000), wk =   0.0602591
        k(   44) = (  -0.0000000   0.3500000   0.7000000), wk =   0.0630239
        k(   45) = (  -0.0000000   0.3000000   0.6000000), wk =   0.0657888
        k(   46) = (   0.0000000   0.2500000   0.5000000), wk =   0.0685537
        k(   47) = (   0.0000000   0.2000000   0.4000000), wk =   0.0713186
        k(   48) = (   0.0000000   0.1500000   0.3000000), wk =   0.0740835
        k(   49) = (  -0.0000000   0.1000000   0.2000000), wk =   0.0768484
        k(   50) = (  -0.0000000   0.0500000   0.1000000), wk =   0.0796133
        k(   51) = (   0.0000000   0.0000000   0.0000000), wk =   0.0823782

     Dense  grid:    12939 G-vectors     FFT dimensions: (  36,  36,  36)

     Largest allocated arrays     est. size (Mb)     dimensions
        Kohn-Sham Wavefunctions         0.60 Mb     (    1639,   24)
        NL pseudopotentials             0.55 Mb     (    1639,   22)
        Each V/rho on FFT grid          0.71 Mb     (   46656)
        Each G-vector array             0.10 Mb     (   12939)
        G-vector shells                 0.00 Mb     (     180)
     Largest temporary arrays     est. size (Mb)     dimensions
        Auxiliary wavefunctions         2.40 Mb     (    1639,   96)
        Each subspace H/S matrix        0.14 Mb     (      96,   96)
        Each <psi_i|beta_j> matrix      0.01 Mb     (      22,   24)

     The potential is recalculated from file :
     ./out/Si.save/charge-density.dat

     Starting wfc are   32 randomized atomic wfcs

     Band Structure Calculation
     Davidson diagonalization with overlap

     ethr =  1.78E-11,  avg # of iterations = 19.9

     total cpu time spent up to now is       59.7 secs

     End of band structure calculation

          k = 0.5000 0.5000 0.5000 (  1622 PWs)   bands (ev):

    -5.2032  -1.5716   3.7994   3.7994   6.3728   9.2203   9.2203  13.5299
    16.1970  16.5545  16.5545  16.9531  16.9531  17.3100  24.5293  25.7549
    27.0396  27.0396  27.9111  27.9111  31.2925  31.6047  31.6047  32.7953

          k = 0.4500 0.4500 0.4500 (  1610 PWs)   bands (ev):

    -5.2896  -1.4274   3.8163   3.8163   6.3945   9.2306   9.2306  13.4893
    15.7192  15.7852  15.7852  17.8016  17.8016  17.8445  23.5709  26.2486
    26.2486  26.8169  28.5158  28.5158  30.7921  31.5490  31.5490  33.0688

          k = 0.4000 0.4000 0.4000 (  1616 PWs)   bands (ev):

    -5.5125  -1.0317   3.8666   3.8666   6.4592   9.2550   9.2550  13.2857
    14.9521  14.9521  15.1240  18.6195  18.8662  18.8662  22.3921  25.1053
    25.1053  28.3655  29.1090  29.1090  29.7014  31.4345  31.4345  33.8418

          k = 0.3500 0.3500 0.3500 (  1610 PWs)   bands (ev):

    -5.8025  -0.4559   3.9490   3.9490   6.5642   9.2740   9.2740  12.7654
    14.2493  14.2493  14.8714  18.9724  19.9118  19.9118  21.7624  24.0286
    24.0286  28.3892  29.4018  29.4018  30.0335  31.3075  31.3075  34.6093

          k = 0.3000 0.3000 0.3000 (  1615 PWs)   bands (ev):

    -6.1054   0.2425   4.0609   4.0609   6.7046   9.2559   9.2559  11.9962
    13.7199  13.7199  14.9203  18.4639  20.6665  20.6665  22.1199  23.3356
    23.3356  27.1313  29.4847  29.4847  31.1745  31.1745  31.6374  34.3034

          k = 0.2500 0.2500 0.2500 (  1618 PWs)   bands (ev):

    -6.3890   1.0256   4.1975   4.1975   6.8705   9.1672   9.1672  11.1340
    13.4017  13.4017  15.0816  17.6140  20.5264  20.5264  22.9402  23.6471
    23.6471  25.9939  29.4603  29.4603  31.0339  31.0339  32.8568  34.2720

          k = 0.2000 0.2000 0.2000 (  1606 PWs)   bands (ev):

    -6.6352   1.8667   4.3509   4.3509   7.0420   8.9963   8.9963  10.2572
    13.3068  13.3068  15.1437  16.9498  19.7699  19.7699  23.5241  24.6895
    24.6895  25.3425  29.3938  29.3938  30.8830  30.8830  32.7260  35.4640

          k = 0.1500 0.1500 0.1500 (  1600 PWs)   bands (ev):

    -6.8338   2.7408   4.5083   4.5083   7.1742   8.7705   8.7705   9.4222
    13.4022  13.4022  14.8553  16.8078  18.9318  18.9318  23.1124  25.8605
    25.9244  25.9244  29.3231  29.3231  30.7115  30.7115  32.0657  35.9620

          k = 0.1000 0.1000 0.1000 (  1606 PWs)   bands (ev):

    -6.9790   3.6123   4.6506   4.6506   7.1577   8.5452   8.5452   8.7404
    13.6144  13.6144  14.3779  17.0435  18.1905  18.1905  22.3729  26.8807
    27.1565  27.1565  29.2770  29.2770  30.4892  30.4892  31.2438  35.8195

          k = 0.0500 0.0500 0.0500 (  1630 PWs)   bands (ev):

    -7.0673   4.3965   4.7526   4.7526   6.8538   8.3793   8.3793   8.3918
    13.8357  13.8357  14.0077  17.3301  17.6574  17.6574  21.7952  27.9450
    28.2053  28.2053  29.3154  29.3154  30.1520  30.1520  30.3391  35.7323

          k = 0.0000 0.0000 0.0000 (  1639 PWs)   bands (ev):

    -7.0970   4.7901   4.7901   4.7901   6.5835   8.3182   8.3182   8.3182
    13.8725  13.9338  13.9338  17.4566  17.4566  17.4566  21.5735  28.6512
    28.6512  28.6512  29.6268  29.6268  29.6897  29.6897  29.6897  35.7030

          k = 0.0000 0.1000 0.0000 (  1627 PWs)   bands (ev):

    -7.0574   4.3913   4.6746   4.6746   6.9718   8.2262   8.4839   8.4839
    13.6330  13.9814  14.0536  17.5312  17.5312  17.6573  21.8759  27.8185
    27.8185  28.7119  28.7828  29.2080  30.3391  30.3391  30.3930  35.9771

          k = 0.0000 0.2000 0.0000 (  1599 PWs)   bands (ev):

    -6.9393   3.6228   4.3836   4.3836   7.6341   8.0380   8.9249   8.9249
    12.9750  14.1243  14.5562  17.7528  17.7528  18.0946  22.7186  26.5471
    26.5471  27.8099  28.2032  28.9030  30.9503  31.0883  31.0883  36.7608

          k = 0.0000 0.3000 0.0000 (  1607 PWs)   bands (ev):

    -6.7444   2.7801   4.0142   4.0142   7.5740   8.4327   9.5420   9.5420
    12.3510  14.3621  15.2952  18.1114  18.1114  18.6120  23.9300  25.2394
    25.2394  26.7866  26.9560  29.2522  31.3047  31.6302  31.6302  37.6113

          k = 0.0000 0.4000 0.0000 (  1607 PWs)   bands (ev):

    -6.4753   1.9295   3.6346   3.6346   7.2407   8.7405  10.2647  10.2647
    12.1308  14.6945  16.1845  18.5789  18.5789  19.2006  23.9917  23.9917
    25.2822  25.6400  25.7739  29.8221  31.4321  31.9925  31.9925  36.4462

          k = 0.0000 0.5000 0.0000 (  1612 PWs)   bands (ev):

    -6.1367   1.0915   3.2825   3.2825   6.9272   8.5569  11.0524  11.0524
    12.5137  15.1209  17.1393  19.0676  19.0676  19.8894  22.9207  22.9207
    24.3306  24.7824  26.5981  30.6669  31.3376  32.1257  32.1257  35.1374

          k = 0.0000 0.6000 0.0000 (  1620 PWs)   bands (ev):

    -5.7364   0.2787   2.9783   2.9783   6.6716   8.0981  11.8814  11.8814
    13.2895  15.6401  18.0399  19.3036  19.3036  20.7012  22.3145  22.3145
    23.0641  23.9777  27.6370  30.6460  31.7010  31.7010  32.0657  33.8084

          k = 0.0000 0.7000 0.0000 (  1632 PWs)   bands (ev):

    -5.2888  -0.4926   2.7333   2.7333   6.4932   7.5996  12.7336  12.7336
    14.2186  16.2505  18.6692  18.9139  18.9139  21.6403  21.8605  22.5543
    22.5543  23.5425  28.3888  29.7153  30.5227  30.5227  31.7928  32.8768

          k = 0.0000 0.8000 0.0000 (  1624 PWs)   bands (ev):

    -4.8236  -1.1907   2.5546   2.5546   6.4034   7.1642  13.5828  13.5828
    15.1782  16.9478  18.1211  18.1211  18.7602  20.7340  22.6634  23.4308
    23.4308  23.7600  28.4782  28.7477  29.0329  29.0329  30.4372  32.1583

          k = 0.0000 0.9000 0.0000 (  1608 PWs)   bands (ev):

    -4.4142  -1.7407   2.4459   2.4459   6.4040   6.8361  14.3510  14.3510
    16.0614  17.3169  17.3169  17.7158  18.3680  19.7065  23.6489  24.5813
    24.6076  24.6076  27.2964  27.5095  27.5095  27.9696  30.1883  31.5690

          k = 0.0000 1.0000 0.0000 (  1604 PWs)   bands (ev):

    -4.2304  -1.9715   2.4095   2.4095   6.4456   6.6837  14.7357  14.7357
    16.5341  16.9124  16.9124  18.0285  18.3172  19.0183  24.1980  25.2212
    25.7210  25.7210  26.2827  26.2827  26.7593  27.1195  30.3854  31.2605

          k = 0.0000 0.9750 0.0750 (  1618 PWs)   bands (ev):

    -4.2399  -1.9477   2.3560   2.3665   6.5510   6.8072  14.4878  14.6032
    16.0858  16.6484  17.3171  18.1943  18.6112  19.2861  23.9642  24.7688
    25.4031  25.7933  26.4577  26.4886  27.1818  27.4507  30.1824  31.0713

          k = 0.0000 0.9500 0.1500 (  1622 PWs)   bands (ev):

    -4.2651  -1.8827   2.2098   2.2634   6.8557   7.1508  13.7195  14.2828
    15.6367  16.4252  17.5583  18.3714  19.2352  20.1139  23.3334  24.2133
    25.0126  25.8839  26.6376  26.7039  27.9772  28.1746  29.7691  30.7489

          k =-0.0000 0.9250 0.2250 (  1622 PWs)   bands (ev):

    -4.2991  -1.7938   2.0077   2.1533   7.3268   7.6613  12.6991  13.8243
    15.2180  16.3985  17.6002  18.6680  19.8370  21.2400  22.6195  23.6948
    24.8043  25.9640  26.7287  26.8307  28.2545  29.0005  29.5484  30.9653

          k =-0.0000 0.9000 0.3000 (  1623 PWs)   bands (ev):

    -4.3337  -1.7045   1.7894   2.0865   7.9232   8.2915  11.6289  13.2650
    14.8484  16.3535  17.6718  18.9892  20.4177  22.0147  22.3980  23.2620
    24.7534  25.9928  26.5531  26.6432  28.1885  29.4643  29.9747  32.0051

          k = 0.0000 0.8750 0.3750 (  1614 PWs)   bands (ev):

    -4.3618  -1.6375   1.5850   2.0978   8.6018   9.0013  10.5983  12.6592
    14.5206  16.1754  17.8583  19.3168  20.8235  21.7613  22.6975  23.6446
    24.8415  25.5622  26.2075  26.4348  28.2187  29.9725  30.6572  33.3774

          k = 0.0000 0.8500 0.4500 (  1612 PWs)   bands (ev):

    -4.3786  -1.6073   1.4144   2.2004   9.1515   9.6518   9.9343  12.0614
    14.2118  15.8661  18.1392  19.6537  20.8504  21.9757  22.4764  24.1955
    24.7463  25.0977  25.9003  26.6032  28.3522  30.4754  31.3021  33.4862

          k = 0.0000 0.8250 0.5250 (  1611 PWs)   bands (ev):

    -4.3814  -1.6153   1.2904   2.3804   8.5419  10.2796  10.5418  11.5804
    13.9080  15.4715  18.4684  20.0030  20.8082  22.0679  22.5368  23.6806
    24.3100  25.0294  26.5422  26.8827  28.4300  30.4528  32.1556  33.0574

          k =-0.0000 0.8000 0.6000 (  1614 PWs)   bands (ev):

    -4.3693  -1.6519   1.2204   2.5934   7.7959  10.5564  11.1740  11.7814
    13.6065  15.0503  18.8008  20.3628  20.8774  21.9596  22.2464  23.2353
    23.8380  25.3077  27.1550  27.4198  28.2915  29.9181  32.4910  32.7448

          k =-0.0000 0.7750 0.6750 (  1621 PWs)   bands (ev):

    -4.3431  -1.7036   1.2085   2.7615   7.2399  10.1215  12.0236  12.4863
    13.3207  14.6983  19.0646  20.6977  21.0370  21.5340  21.8473  22.5716
    24.1926  25.6082  27.5295  27.9105  28.0404  29.0767  31.7682  32.4485

          k = 0.0000 0.7500 0.7500 (  1624 PWs)   bands (ev):

    -4.3056  -1.7576   1.2559   2.7866   6.9827   9.6461  12.7050  12.9693
    13.2292  14.6639  19.0704  20.6889  20.9857  21.4178  21.5572  22.3779
    24.7029  25.7632  27.4987  27.7143  28.3026  28.3944  31.2225  32.0615

          k = 0.0000 0.7250 0.7750 (  1616 PWs)   bands (ev):

    -4.3030  -1.7579   1.2599   2.7604   7.0271   9.6496  12.5676  12.8920
    13.3654  14.7408  19.0080  20.6341  20.9519  21.5178  21.6301  22.3898
    24.7027  25.7078  27.4801  27.5987  28.3380  28.4929  31.2422  32.0461

          k = 0.0000 0.7000 0.8000 (  1621 PWs)   bands (ev):

    -4.2956  -1.7589   1.2720   2.6858   7.1565   9.6600  12.3098  12.6931
    13.6193  14.9372  18.8452  20.4243  21.0235  21.6459  21.8686  22.4254
    24.7018  25.5607  27.1814  27.6799  28.2399  28.7834  31.3030  32.0144

          k = 0.0000 0.6750 0.8250 (  1620 PWs)   bands (ev):

    -4.2837  -1.7607   1.2921   2.5731   7.3610   9.6770  12.0276  12.4277
    13.8952  15.1948  18.6276  20.1514  21.1556  21.8239  22.1578  22.4849
    24.6985  25.3605  26.8252  27.7757  28.1117  29.0732  31.4099  32.0019

          k = 0.0000 0.6500 0.8500 (  1616 PWs)   bands (ev):

    -4.2679  -1.7637   1.3199   2.4354   7.6278   9.7001  11.7405  12.1320
    14.1733  15.4707  18.3936  19.8661  21.2936  22.0585  22.4475  22.5779
    24.6876  25.1457  26.4634  27.6328  28.1561  29.3200  31.5687  32.0483

          k = 0.0000 0.6250 0.8750 (  1616 PWs)   bands (ev):

    -4.2492  -1.7680   1.3552   2.2856   7.9443   9.7283  11.4549  11.8256
    14.4467  15.7334  18.1734  19.5813  21.4338  22.3104  22.6484  22.7942
    24.6501  24.9607  26.1061  27.2929  28.3247  29.5014  31.7828  32.1798

          k = 0.0000 0.6000 0.9000 (  1613 PWs)   bands (ev):

    -4.2289  -1.7739   1.3974   2.1351   8.2990   9.7599  11.1751  11.5197
    14.7111  15.9510  17.9984  19.3027  21.5835  22.5015  22.8401  23.0908
    24.5516  24.8633  25.7597  26.8729  28.5128  29.6058  32.0509  32.4029

          k = 0.0000 0.5750 0.9250 (  1615 PWs)   bands (ev):

    -4.2087  -1.7810   1.4458   1.9935   8.6802   9.7920  10.9059  11.2234
    14.9613  16.0871  17.9047  19.0350  21.7479  22.5829  23.1012  23.3933
    24.4265  24.8413  25.4309  26.4147  28.7039  29.6321  32.3671  32.7076

          k = 0.0000 0.5500 0.9500 (  1615 PWs)   bands (ev):

    -4.1909  -1.7885   1.4982   1.8697   9.0713   9.8194  10.6565  10.9476
    15.1881  16.1180  17.9169  18.7850  21.9276  22.5751  23.3674  23.6954
    24.3389  24.8376  25.1361  25.9613  28.8951  29.5858  32.7235  33.0767

          k = 0.0000 0.5250 0.9750 (  1615 PWs)   bands (ev):

    -4.1780  -1.7949   1.5483   1.7746   9.4275   9.8383  10.4514  10.7147
    15.3696  16.0691  18.0130  18.5694  22.1176  22.4887  23.5814  23.9826
    24.2995  24.7657  24.9440  25.5973  29.0847  29.4762  33.1117  33.4918

          k = 0.0000 0.5000 1.0000 (  1628 PWs)   bands (ev):

    -4.1731  -1.7977   1.5732   1.7344   9.5874   9.8628  10.3663  10.5948
    15.4484  16.0279  18.0890  18.4606  22.2668  22.3747  23.6774  24.1422
    24.2822  24.6635  24.8840  25.4649  29.2284  29.3568  33.5037  33.5459

          k = 0.0000 0.4500 0.9000 (  1616 PWs)   bands (ev):

    -4.2700  -1.7117   1.4610   2.0021   9.2473   9.6405  10.0975  11.6223
    14.7200  16.1630  17.8621  19.2198  21.3513  22.3678  22.8989  23.9596
    24.6641  24.9417  25.6765  25.9840  28.5068  30.1425  31.6996  33.7585

          k =-0.0000 0.4000 0.8000 (  1616 PWs)   bands (ev):

    -4.5677  -1.4170   1.5153   2.3905   8.8306   9.3507   9.8991  12.9785
    13.8099  15.5670  18.4406  19.7624  20.2508  21.2469  22.1712  24.2195
    24.9829  25.3664  26.3572  27.3514  28.2905  29.8125  31.3800  33.5702

          k =-0.0000 0.3500 0.7000 (  1618 PWs)   bands (ev):

    -4.9988  -0.9265   1.7560   2.8143   8.4675   9.1282   9.8412  12.6032
    14.2966  15.1850  18.3165  19.3149  19.8654  20.5526  22.1909  23.6083
    24.9197  25.7015  27.4298  27.9111  28.8531  29.8713  32.5043  33.3335

          k =-0.0000 0.3000 0.6000 (  1609 PWs)   bands (ev):

    -5.4733  -0.2836   2.1399   3.2421   8.1913   8.9417   9.9208  11.6925
    13.8056  16.1927  16.9351  18.8734  19.6497  20.8532  21.7919  23.6237
    24.4369  26.1838  26.6487  29.3955  29.8231  31.0984  31.7616  33.6756

          k = 0.0000 0.2500 0.5000 (  1610 PWs)   bands (ev):

    -5.9299   0.4800   2.6263   3.6466   8.0132   8.7370  10.1183  10.8400
    13.1596  15.5183  16.7637  18.2815  19.6966  20.9474  21.5216  23.7390
    24.5452  26.2720  26.7450  29.3757  30.0295  31.5488  33.3352  33.9374

          k = 0.0000 0.2000 0.4000 (  1613 PWs)   bands (ev):

    -6.3324   1.3434   3.1756   4.0085   7.9281   8.4814  10.0661  10.2834
    12.6135  14.5819  16.3028  17.8129  19.0805  20.9600  22.0387  23.9734
    25.6025  25.7736  27.3126  28.2967  30.4036  32.3458  33.6577  34.7242

          k = 0.0000 0.1500 0.3000 (  1607 PWs)   bands (ev):

    -6.6600   2.2878   3.7410   4.3174   7.8719   8.2197   9.3958   9.9727
    12.5245  14.1086  15.5043  17.5154  18.3494  19.8586  23.7949  24.0609
    25.5164  26.7287  27.9383  28.1081  30.6609  31.9462  32.7480  36.3870

          k =-0.0000 0.1000 0.2000 (  1600 PWs)   bands (ev):

    -6.9007   3.2838   4.2596   4.5639   7.5771   8.1778   8.8445   9.1961
    13.0057  13.9524  14.6965  17.3974  17.8410  18.7449  22.8929  25.7550
    26.5682  27.7947  28.3063  28.6160  30.6948  31.2261  31.6476  36.5047

          k =-0.0000 0.0500 0.1000 (  1623 PWs)   bands (ev):

    -7.0476   4.2489   4.6439   4.7301   7.0132   8.2693   8.4608   8.5392
    13.6268  13.9299  14.0966  17.4187  17.5508  17.8430  21.9420  27.5593
    27.7872  28.5468  28.7697  29.2598  30.3557  30.4241  30.5133  35.9231

          k = 0.0000 0.0000 0.0000 (  1639 PWs)   bands (ev):

    -7.0970   4.7901   4.7901   4.7901   6.5835   8.3182   8.3182   8.3182
    13.8725  13.9338  13.9338  17.4566  17.4566  17.4566  21.5735  28.6512
    28.6512  28.6512  29.6268  29.6268  29.6897  29.6897  29.6897  35.7030

     Writing output data file Si.save

     init_run     :      0.28s CPU      0.28s WALL (       1 calls)
     electrons    :     57.41s CPU     57.68s WALL (       1 calls)

     Called by init_run:
     wfcinit      :      0.00s CPU      0.00s WALL (       1 calls)
     potinit      :      0.06s CPU      0.06s WALL (       1 calls)

     Called by electrons:
     c_bands      :     57.41s CPU     57.68s WALL (       1 calls)
     v_of_rho     :      0.05s CPU      0.05s WALL (       1 calls)

     Called by c_bands:
     init_us_2    :      0.09s CPU      0.09s WALL (      51 calls)
     cegterg      :     51.84s CPU     52.08s WALL (      69 calls)

     Called by *egterg:
     h_psi        :     40.39s CPU     40.61s WALL (    1134 calls)
     g_psi        :      0.12s CPU      0.12s WALL (    1014 calls)
     cdiaghg      :      3.19s CPU      3.20s WALL (    1065 calls)

     Called by h_psi:
     add_vuspsi   :      1.10s CPU      1.10s WALL (    1134 calls)

     General routines
     calbec       :      1.26s CPU      1.27s WALL (    1134 calls)
     fft          :      0.02s CPU      0.02s WALL (      10 calls)
     fftw         :     36.12s CPU     36.33s WALL (   30370 calls)
     davcio       :      0.00s CPU      0.01s WALL (      51 calls)

     Parallel routines
     fft_scatter  :      0.85s CPU      0.85s WALL (   30380 calls)

     PWSCF        :    59.29s CPU        59.83s WALL


   This run was terminated on:  20:21: 1  12Feb2023            

=------------------------------------------------------------------------------=
   JOB DONE.
=------------------------------------------------------------------------------=
