
     Program PWSCF v.5.1 starts on 12Feb2023 at 20:18:19 

     This program is part of the open-source Quantum ESPRESSO suite
     for quantum simulation of materials; please cite
         "P. Giannozzi et al., J. Phys.:Condens. Matter 21 395502 (2009);
          URL http://www.quantum-espresso.org", 
     in publications or presentations arising from this work. More details at
     http://www.quantum-espresso.org/quote

     Parallel version (MPI), running on     1 processors
     Waiting for input...
     Reading input from standard input
Warning: card   SI    0.0000000000D0   0.5000000000D0   0.5000000000D0 ignored
Warning: card   SI    0.2500000000D0   0.7500000000D0   0.7500000000D0 ignored
Warning: card   SI   -0.5000000000D0   0.0000000000D0   0.5000000000D0 ignored
Warning: card   SI   -0.2500000000D0   0.2500000000D0   0.7500000000D0 ignored
Warning: card   SI   -0.5000000000D0   0.5000000000D0   0.10000000000D0 ignored
Warning: card   SI   -0.2500000000D0   0.7500000000D0   1.25000000000D0 ignored

     Current dimensions of program PWSCF are:
     Max number of different atomic species (ntypx) = 10
     Max number of k-points (npk) =  40000
     Max angular momentum in pseudopotentials (lmaxx) =  3

     Atomic positions and unit cell read from directory:
     ./out/Si.save/

               file Si.pbe-mt_fhi.UPF: wavefunction(s)  4f renormalized
               file P.pbe-mt_fhi.UPF: wavefunction(s)  4f renormalized

     Subspace diagonalization in iterative solution of the eigenvalue problem:
     a serial algorithm will be used


     G-vector sticks info
     --------------------
     sticks:   dense  smooth     PW     G-vecs:    dense   smooth      PW
     Sum         733     733    223                12939    12939    2229



     bravais-lattice index     =            2
     lattice parameter (alat)  =      10.2623  a.u.
     unit-cell volume          =     270.1967 (a.u.)^3
     number of atoms/cell      =            2
     number of atomic types    =            2
     number of electrons       =         9.00
     number of Kohn-Sham states=           24
     kinetic-energy cutoff     =      50.0000  Ry
     charge density cutoff     =     200.0000  Ry
     Exchange-correlation      = PBE ( 1  4  3  4 0)

     celldm(1)=  10.262347  celldm(2)=   0.000000  celldm(3)=   0.000000
     celldm(4)=   0.000000  celldm(5)=   0.000000  celldm(6)=   0.000000

     crystal axes: (cart. coord. in units of alat)
               a(1) = (  -0.500000   0.000000   0.500000 )  
               a(2) = (   0.000000   0.500000   0.500000 )  
               a(3) = (  -0.500000   0.500000   0.000000 )  

     reciprocal axes: (cart. coord. in units 2 pi/alat)
               b(1) = ( -1.000000 -1.000000  1.000000 )  
               b(2) = (  1.000000  1.000000  1.000000 )  
               b(3) = ( -1.000000  1.000000 -1.000000 )  


     PseudoPot. # 1 for Si read from file:
     /home/acedemo/psudo/Si.pbe-mt_fhi.UPF
     MD5 check sum: 259057c2adf9952f9ced37ae3d9e311d
     Pseudo is Norm-conserving, Zval =  4.0
     Generated using FHI98PP, converted with fhi2upf.x v.5.0.2
     Using radial grid of  495 points,  3 beta functions with: 
                l(1) =   0
                l(2) =   1
                l(3) =   3

     PseudoPot. # 2 for  P read from file:
     /home/acedemo/psudo/P.pbe-mt_fhi.UPF
     MD5 check sum: 7191c457fb61afa58d0f00d0e4a443c1
     Pseudo is Norm-conserving, Zval =  5.0
     Generated using FHI98PP, converted with fhi2upf.x v.5.0.2
     Using radial grid of  499 points,  3 beta functions with: 
                l(1) =   0
                l(2) =   1
                l(3) =   3

     atomic species   valence    mass     pseudopotential
        Si             4.00    28.08550     Si( 1.00)
        P              5.00    30.97376      P( 1.00)

     24 Sym. Ops. (no inversion) found



   Cartesian axes

     site n.     atom                  positions (alat units)
         1           P   tau(   1) = (   0.0000000   0.0000000   0.0000000  )
         2           Si  tau(   2) = (   0.2500000   0.2500000   0.2500000  )

     number of k points=    72 (tetrahedron method)
                       cart. coord. in units 2pi/alat
        k(    1) = (   0.0000000   0.0000000   0.0000000), wk =   0.0011574
        k(    2) = (  -0.0833333   0.0833333  -0.0833333), wk =   0.0092593
        k(    3) = (  -0.1666667   0.1666667  -0.1666667), wk =   0.0092593
        k(    4) = (  -0.2500000   0.2500000  -0.2500000), wk =   0.0092593
        k(    5) = (  -0.3333333   0.3333333  -0.3333333), wk =   0.0092593
        k(    6) = (  -0.4166667   0.4166667  -0.4166667), wk =   0.0092593
        k(    7) = (   0.5000000  -0.5000000   0.5000000), wk =   0.0046296
        k(    8) = (   0.0000000   0.1666667   0.0000000), wk =   0.0069444
        k(    9) = (  -0.0833333   0.2500000  -0.0833333), wk =   0.0277778
        k(   10) = (  -0.1666667   0.3333333  -0.1666667), wk =   0.0277778
        k(   11) = (  -0.2500000   0.4166667  -0.2500000), wk =   0.0277778
        k(   12) = (  -0.3333333   0.5000000  -0.3333333), wk =   0.0277778
        k(   13) = (   0.5833333  -0.4166667   0.5833333), wk =   0.0277778
        k(   14) = (   0.5000000  -0.3333333   0.5000000), wk =   0.0277778
        k(   15) = (   0.4166667  -0.2500000   0.4166667), wk =   0.0277778
        k(   16) = (   0.3333333  -0.1666667   0.3333333), wk =   0.0277778
        k(   17) = (   0.2500000  -0.0833333   0.2500000), wk =   0.0277778
        k(   18) = (   0.1666667  -0.0000000   0.1666667), wk =   0.0138889
        k(   19) = (   0.0000000   0.3333333   0.0000000), wk =   0.0069444
        k(   20) = (  -0.0833333   0.4166667  -0.0833333), wk =   0.0277778
        k(   21) = (  -0.1666667   0.5000000  -0.1666667), wk =   0.0277778
        k(   22) = (  -0.2500000   0.5833333  -0.2500000), wk =   0.0277778
        k(   23) = (   0.6666667  -0.3333333   0.6666667), wk =   0.0277778
        k(   24) = (   0.5833333  -0.2500000   0.5833333), wk =   0.0277778
        k(   25) = (   0.5000000  -0.1666667   0.5000000), wk =   0.0277778
        k(   26) = (   0.4166667  -0.0833333   0.4166667), wk =   0.0277778
        k(   27) = (   0.3333333   0.0000000   0.3333333), wk =   0.0138889
        k(   28) = (   0.0000000   0.5000000   0.0000000), wk =   0.0069444
        k(   29) = (  -0.0833333   0.5833333  -0.0833333), wk =   0.0277778
        k(   30) = (  -0.1666667   0.6666667  -0.1666667), wk =   0.0277778
        k(   31) = (   0.7500000  -0.2500000   0.7500000), wk =   0.0277778
        k(   32) = (   0.6666667  -0.1666667   0.6666667), wk =   0.0277778
        k(   33) = (   0.5833333  -0.0833333   0.5833333), wk =   0.0277778
        k(   34) = (   0.5000000   0.0000000   0.5000000), wk =   0.0138889
        k(   35) = (   0.0000000   0.6666667   0.0000000), wk =   0.0069444
        k(   36) = (  -0.0833333   0.7500000  -0.0833333), wk =   0.0277778
        k(   37) = (   0.8333333  -0.1666667   0.8333333), wk =   0.0277778
        k(   38) = (   0.7500000  -0.0833333   0.7500000), wk =   0.0277778
        k(   39) = (   0.6666667   0.0000000   0.6666667), wk =   0.0138889
        k(   40) = (   0.0000000   0.8333333   0.0000000), wk =   0.0069444
        k(   41) = (   0.9166667  -0.0833333   0.9166667), wk =   0.0277778
        k(   42) = (   0.8333333   0.0000000   0.8333333), wk =   0.0138889
        k(   43) = (   0.0000000  -1.0000000   0.0000000), wk =   0.0034722
        k(   44) = (  -0.1666667   0.3333333   0.0000000), wk =   0.0277778
        k(   45) = (  -0.2500000   0.4166667  -0.0833333), wk =   0.0555556
        k(   46) = (  -0.3333333   0.5000000  -0.1666667), wk =   0.0555556
        k(   47) = (   0.5833333  -0.4166667   0.7500000), wk =   0.0555556
        k(   48) = (   0.5000000  -0.3333333   0.6666667), wk =   0.0277778
        k(   49) = (  -0.1666667   0.5000000   0.0000000), wk =   0.0277778
        k(   50) = (  -0.2500000   0.5833333  -0.0833333), wk =   0.0555556
        k(   51) = (   0.6666667  -0.3333333   0.8333333), wk =   0.0555556
        k(   52) = (   0.5833333  -0.2500000   0.7500000), wk =   0.0555556
        k(   53) = (   0.5000000  -0.1666667   0.6666667), wk =   0.0555556
        k(   54) = (   0.4166667  -0.0833333   0.5833333), wk =   0.0555556
        k(   55) = (   0.3333333   0.0000000   0.5000000), wk =   0.0277778
        k(   56) = (  -0.1666667   0.6666667  -0.0000000), wk =   0.0277778
        k(   57) = (   0.7500000  -0.2500000   0.9166667), wk =   0.0555556
        k(   58) = (   0.6666667  -0.1666667   0.8333333), wk =   0.0555556
        k(   59) = (   0.5833333  -0.0833333   0.7500000), wk =   0.0555556
        k(   60) = (   0.5000000   0.0000000   0.6666667), wk =   0.0277778
        k(   61) = (   0.8333333  -0.1666667   1.0000000), wk =   0.0277778
        k(   62) = (   0.7500000  -0.0833333   0.9166667), wk =   0.0555556
        k(   63) = (   0.6666667   0.0000000   0.8333333), wk =   0.0277778
        k(   64) = (  -0.1666667  -1.0000000   0.0000000), wk =   0.0138889
        k(   65) = (   0.6666667  -0.3333333   1.0000000), wk =   0.0277778
        k(   66) = (   0.5833333  -0.2500000   0.9166667), wk =   0.0555556
        k(   67) = (   0.5000000  -0.1666667   0.8333333), wk =   0.0277778
        k(   68) = (   0.6666667  -0.1666667   1.0000000), wk =   0.0277778
        k(   69) = (   0.5833333  -0.0833333   0.9166667), wk =   0.0555556
        k(   70) = (   0.5000000   0.0000000   0.8333333), wk =   0.0277778
        k(   71) = (  -0.3333333  -1.0000000   0.0000000), wk =   0.0138889
        k(   72) = (  -0.5000000  -1.0000000   0.0000000), wk =   0.0069444

     Dense  grid:    12939 G-vectors     FFT dimensions: (  36,  36,  36)

     Largest allocated arrays     est. size (Mb)     dimensions
        Kohn-Sham Wavefunctions         0.60 Mb     (    1639,   24)
        NL pseudopotentials             0.55 Mb     (    1639,   22)
        Each V/rho on FFT grid          0.71 Mb     (   46656)
        Each G-vector array             0.10 Mb     (   12939)
        G-vector shells                 0.00 Mb     (     180)
     Largest temporary arrays     est. size (Mb)     dimensions
        Auxiliary wavefunctions         2.40 Mb     (    1639,   96)
        Each subspace H/S matrix        0.14 Mb     (      96,   96)
        Each <psi_i|beta_j> matrix      0.01 Mb     (      22,   24)

     The potential is recalculated from file :
     ./out/Si.save/charge-density.dat

     Starting wfc are   32 randomized atomic wfcs

     Band Structure Calculation
     Davidson diagonalization with overlap

     ethr =  1.78E-11,  avg # of iterations = 21.0

     total cpu time spent up to now is       84.0 secs

     End of band structure calculation

          k = 0.0000 0.0000 0.0000 (  1639 PWs)   bands (ev):

    -7.0970   4.7901   4.7901   4.7901   6.5835   8.3182   8.3182   8.3182
    13.8725  13.9338  13.9338  17.4566  17.4566  17.4566  21.5735  28.6512
    28.6512  28.6512  29.6268  29.6268  29.6897  29.6897  29.6897  35.7030

          k =-0.0833 0.0833-0.0833 (  1612 PWs)   bands (ev):

    -7.0149   3.8909   4.6903   4.6903   7.0883   8.4806   8.4806   8.5820
    13.6935  13.6935  14.2337  17.1455  17.9837  17.9837  22.1512  27.2402
    27.5397  27.5397  29.2745  29.2745  30.3936  30.3936  30.9470  35.7842

          k =-0.1667 0.1667-0.1667 (  1591 PWs)   bands (ev):

    -6.7733   2.4475   4.4564   4.4564   7.1393   8.8487   8.8487   9.6912
    13.3531  13.3531  14.9912  16.7944  19.2062  19.2062  23.3338  25.5060
    25.5060  25.5852  29.3453  29.3453  30.7722  30.7722  32.3090  36.0210

          k =-0.2500 0.2500-0.2500 (  1618 PWs)   bands (ev):

    -6.3890   1.0256   4.1975   4.1975   6.8705   9.1672   9.1672  11.1340
    13.4017  13.4017  15.0816  17.6140  20.5264  20.5264  22.9402  23.6471
    23.6471  25.9939  29.4603  29.4603  31.0339  31.0339  32.8568  34.2720

          k =-0.3333 0.3333-0.3333 (  1616 PWs)   bands (ev):

    -5.9040  -0.2345   3.9832   3.9832   6.6074   9.2739   9.2739  12.5273
    14.0515  14.0515  14.8639  18.8877  20.2219  20.2219  21.7825  23.7275
    23.7275  27.9662  29.4469  29.4469  30.5733  31.2639  31.2639  34.5137

          k =-0.4167 0.4167-0.4167 (  1616 PWs)   bands (ev):

    -5.4274  -1.1871   3.8462   3.8462   6.4330   9.2462   9.2462  13.3830
    15.2176  15.2176  15.2942  18.3772  18.5078  18.5078  22.7545  25.4887
    25.4887  27.8407  28.9457  28.9457  30.0942  31.4751  31.4751  33.5342

          k = 0.5000-0.5000 0.5000 (  1622 PWs)   bands (ev):

    -5.2032  -1.5716   3.7994   3.7994   6.3728   9.2203   9.2203  13.5299
    16.1970  16.5545  16.5545  16.9531  16.9531  17.3100  24.5293  25.7549
    27.0396  27.0396  27.9111  27.9111  31.2925  31.6047  31.6047  32.7953

          k = 0.0000 0.1667 0.0000 (  1615 PWs)   bands (ev):

    -6.9874   3.8936   4.4937   4.4937   7.4288   8.0911   8.7537   8.7537
    13.2088  14.0661  14.3579  17.6630  17.6630  17.9363  22.3867  26.9813
    26.9813  28.1421  28.5783  28.8237  30.7859  30.8613  30.8613  36.4496

          k =-0.0833 0.2500-0.0833 (  1599 PWs)   bands (ev):

    -6.7984   2.7846   4.2083   4.3069   7.6690   8.1992   9.2091   9.5121
    12.7256  14.0234  15.0515  17.2665  18.3460  19.1132  23.4472  25.3155
    25.3789  27.3065  28.1575  28.5540  30.9315  31.3212  32.1569  36.7291

          k =-0.1667 0.3333-0.1667 (  1610 PWs)   bands (ev):

    -6.4599   1.4311   3.9395   4.0316   7.4627   8.6287   9.6002  10.5268
    12.7830  14.0507  15.5523  17.4407  19.5507  20.6024  23.2344  23.3463
    24.7204  26.3626  28.1838  28.6385  30.9611  31.6408  33.2090  34.8021

          k =-0.2500 0.4167-0.2500 (  1606 PWs)   bands (ev):

    -6.0027   0.1501   3.7222   3.7459   7.2067   8.9556   9.7340  11.4172
    13.6511  14.5842  15.3407  18.6012  19.8423  20.9673  22.4934  22.6717
    24.0078  27.6938  28.2810  28.9416  30.8095  31.4013  31.9108  34.8156

          k =-0.3333 0.5000-0.3333 (  1616 PWs)   bands (ev):

    -5.5062  -0.9028   3.4592   3.6523   7.0114   9.0607   9.6540  12.4458
    14.6225  15.5154  15.6506  18.2788  18.3069  20.5559  22.2387  24.2033
    25.2829  28.2720  28.2733  29.1601  29.9038  30.4750  32.0848  34.0621

          k = 0.5833-0.4167 0.5833 (  1615 PWs)   bands (ev):

    -5.1654  -1.5011   3.2823   3.6649   6.9150   9.1129   9.5199  13.3595
    14.9794  16.4409  16.6515  17.1629  17.1743  19.0375  24.0871  25.9725
    26.1201  26.8111  27.8775  27.9769  30.6500  31.5646  31.6229  32.9691

          k = 0.5000-0.3333 0.5000 (  1616 PWs)   bands (ev):

    -5.2440  -1.3698   3.2116   3.7787   6.9301   9.2182   9.4202  13.3763
    14.8985  15.2133  16.7124  17.2117  18.7234  18.8319  23.3179  25.4505
    26.4573  26.9191  28.1098  28.2999  30.7187  30.9910  31.9785  33.1702

          k = 0.4167-0.2500 0.4167 (  1611 PWs)   bands (ev):

    -5.6689  -0.5849   3.2583   3.9791   7.0549   9.3414   9.3566  12.4737
    13.6433  15.0925  15.8081  18.0801  19.8302  20.6057  21.7900  23.4836
    24.9841  28.3017  28.6690  29.2946  29.5790  30.9842  31.8533  34.2181

          k = 0.3333-0.1667 0.3333 (  1605 PWs)   bands (ev):

    -6.1663   0.5601   3.4290   4.2387   7.2701   9.1769   9.3676  11.3316
    12.8847  14.4668  15.4974  18.1198  19.9438  21.5776  21.8193  23.1035
    24.2419  27.0222  28.3815  28.6791  31.2447  31.2992  32.5458  34.6219

          k = 0.2500-0.0833 0.2500 (  1600 PWs)   bands (ev):

    -6.5890   1.8646   3.7288   4.5062   7.5076   8.8537   9.0019  10.3123
    12.7484  13.8391  15.5013  17.2039  18.9499  20.4832  23.1803  23.9530
    25.7588  25.9428  28.0535  28.6465  31.0938  31.2657  33.2710  35.4923

          k = 0.1667-0.0000 0.1667 (  1592 PWs)   bands (ev):

    -6.8794   3.1107   4.1821   4.6916   7.4845   8.5330   8.5373   9.3555
    13.1151  13.7649  14.7664  17.2688  17.8957  19.0660  22.9564  25.3501
    26.7810  27.7707  27.7933  28.9182  30.8082  30.9711  31.9791  36.3889

          k = 0.0000 0.3333 0.0000 (  1607 PWs)   bands (ev):

    -6.6628   2.4961   3.8864   3.8864   7.4650   8.5855   9.7737   9.7737
    12.2150  14.4624  15.5789  18.2576  18.2576  18.7989  24.3785  24.8126
    24.8126  26.4430  26.5200  29.4134  31.3737  31.7700  31.7700  37.3135

          k =-0.0833 0.4167-0.0833 (  1616 PWs)   bands (ev):

    -6.3743   1.5447   3.5588   3.5967   7.4261   8.6962  10.2881  10.3052
    12.4633  14.6730  16.3261  18.0812  18.9848  20.1304  23.2212  23.3092
    25.4655  26.0949  26.1189  29.1333  31.1299  32.0310  32.8786  35.1885

          k =-0.1667 0.5000-0.1667 (  1611 PWs)   bands (ev):

    -5.9559   0.4204   3.1448   3.3961   7.5309   8.9607  10.3513  10.5641
    13.6765  15.1487  16.4117  18.6892  19.4823  20.8429  22.0801  22.7465
    24.8872  26.2099  27.0022  29.1138  30.8440  31.8327  32.1792  34.8568

          k =-0.2500 0.5833-0.2500 (  1610 PWs)   bands (ev):

    -5.4656  -0.6157   2.7407   3.3098   7.4904   9.3220  10.5165  10.7770
    15.0217  16.1305  16.1753  18.1537  18.5617  21.2303  23.1576  23.1818
    24.5701  26.4280  27.4979  29.2377  29.6854  31.1356  32.1793  33.7780

          k = 0.6667-0.3333 0.6667 (  1607 PWs)   bands (ev):

    -5.0506  -1.3381   2.4291   3.3444   7.4581   9.3944  10.3298  11.9018
    14.9524  16.3414  17.1681  17.5247  17.5679  21.3388  23.3816  24.8371
    25.6157  26.1701  26.7610  28.3222  29.6315  31.9011  32.0151  33.2792

          k = 0.5833-0.2500 0.5833 (  1602 PWs)   bands (ev):

    -4.9806  -1.4470   2.2504   3.4936   7.5163   9.4490  10.1306  13.0225
    14.1696  14.7274  17.0824  18.5981  19.2177  19.8877  23.4441  25.4233
    25.5762  26.0537  27.1009  27.8857  30.7975  31.3583  32.3055  32.6373

          k = 0.5000-0.1667 0.5000 (  1610 PWs)   bands (ev):

    -5.3200  -0.8797   2.2338   3.7385   7.6661   9.5739   9.9296  12.2255
    13.4154  15.0397  17.2510  17.8860  20.4082  21.0065  21.6114  23.7415
    25.2453  26.8464  28.2121  28.5738  30.4205  30.9581  32.1342  33.1928

          k = 0.4167-0.0833 0.4167 (  1613 PWs)   bands (ev):

    -5.8086   0.0600   2.4220   4.0416   7.8600   9.6317   9.6330  11.1171
    12.6081  15.7652  16.3701  18.0933  19.6979  21.3025  22.4036  22.9288
    24.7931  27.0866  27.1071  28.9199  30.7276  31.3142  32.3457  33.9365

          k = 0.3333 0.0000 0.3333 (  1604 PWs)   bands (ev):

    -6.2572   1.0588   2.9028   4.3342   7.9297   9.1978   9.2463  10.6530
    12.4295  14.6880  16.2572  17.6697  19.3885  21.2750  21.8558  23.8217
    25.7825  26.5463  27.0376  27.6711  31.2606  31.5167  33.9555  34.3497

          k = 0.0000 0.5000 0.0000 (  1612 PWs)   bands (ev):

    -6.1367   1.0915   3.2825   3.2825   6.9272   8.5569  11.0524  11.0524
    12.5137  15.1209  17.1393  19.0676  19.0676  19.8894  22.9207  22.9207
    24.3306  24.7824  26.5981  30.6669  31.3376  32.1257  32.1257  35.1374

          k =-0.0833 0.5833-0.0833 (  1617 PWs)   bands (ev):

    -5.7645   0.2925   2.8892   3.0595   6.9646   8.3709  11.2359  11.5591
    13.6477  15.6171  17.5633  19.2788  19.3083  20.6034  21.9839  22.4529
    24.0373  24.5042  27.2407  30.3753  30.9471  31.8806  32.1658  33.7282

          k =-0.1667 0.6667-0.1667 (  1620 PWs)   bands (ev):

    -5.3015  -0.5591   2.3424   2.9562   7.1536   8.8012  11.0472  11.6571
    15.1836  16.5409  16.9953  18.1298  19.5334  20.7833  22.4838  23.6543
    24.3935  24.5081  27.0150  28.8496  30.1141  31.3244  32.1479  32.7803

          k = 0.7500-0.2500 0.7500 (  1617 PWs)   bands (ev):

    -4.8588  -1.2518   1.8492   2.9820   7.2288   9.8439  10.9392  11.4844
    15.2404  16.3560  17.3551  17.9451  18.8910  22.4242  23.4507  23.4803
    24.7733  25.3417  25.8399  28.5804  29.1845  30.8261  31.2260  33.3992

          k = 0.6667-0.1667 0.6667 (  1607 PWs)   bands (ev):

    -4.6729  -1.5087   1.5275   3.1330   7.3637  10.5097  11.2133  11.6181
    13.8285  14.7273  18.5918  18.9048  19.5937  22.0463  23.2521  23.7679
    24.0517  25.6462  27.1255  27.5189  30.4368  30.6384  31.3815  32.8243

          k = 0.5833-0.0833 0.5833 (  1611 PWs)   bands (ev):

    -4.9047  -1.1785   1.4503   3.3915   7.6013  10.5952  10.8583  12.0176
    13.4333  13.4857  18.6071  19.5028  20.9287  21.3897  21.5151  23.6805
    24.1626  25.5364  27.9843  28.9595  30.1309  30.8950  31.7039  32.7566

          k = 0.5000 0.0000 0.5000 (  1604 PWs)   bands (ev):

    -5.3555  -0.5433   1.7169   3.7190   7.8645  10.3035  10.4687  10.9925
    12.7196  15.0576  17.7454  18.9385  19.5391  22.0927  22.7113  22.7231
    23.8411  26.0981  27.9431  29.5706  30.7619  30.8696  31.9669  32.6004

          k = 0.0000 0.6667 0.0000 (  1624 PWs)   bands (ev):

    -5.4419  -0.2415   2.8079   2.8079   6.5432   7.7620  12.4482  12.4482
    13.9009  16.0371  18.5081  19.1121  19.1121  21.3143  22.2538  22.3811
    22.3811  23.6276  28.1696  30.0723  30.9732  30.9732  32.2273  33.1127

          k =-0.0833 0.7500-0.0833 (  1618 PWs)   bands (ev):

    -5.0250  -0.8918   2.4170   2.6758   6.6724   7.6337  12.6241  12.8839
    15.1796  16.8071  17.6297  18.1484  19.8087  21.2554  21.6332  23.2824
    23.3008  24.2269  27.9892  28.6472  29.9095  30.0340  30.9608  32.7065

          k = 0.8333-0.1667 0.8333 (  1619 PWs)   bands (ev):

    -4.6056  -1.4435   1.8186   2.6763   6.8555   8.3538  12.4546  12.8255
    15.4778  16.4852  17.3761  18.1797  20.6409  21.1132  21.7212  24.0364
    24.7570  25.3885  25.9915  28.1555  29.0702  29.4097  29.8313  32.6260

          k = 0.7500-0.0833 0.7500 (  1620 PWs)   bands (ev):

    -4.3817  -1.6893   1.3253   2.8086   7.0124   9.6754  12.3145  12.4790
    13.8903  14.9437  18.7781  19.8463  20.6040  21.8228  21.9473  23.0791
    24.5075  25.5937  26.6384  28.3116  28.6649  28.8388  30.5891  32.8456

          k = 0.6667 0.0000 0.6667 (  1612 PWs)   bands (ev):

    -4.5255  -1.5192   1.1487   3.0585   7.2795  11.1152  11.8259  12.1956
    12.4663  13.8652  19.6490  20.5770  20.9007  21.5344  21.9036  22.7177
    23.4104  25.7184  27.8578  28.4939  29.0092  29.3123  32.6220  32.7718

          k = 0.0000 0.8333 0.0000 (  1628 PWs)   bands (ev):

    -4.6751  -1.3965   2.5104   2.5104   6.3939   7.0412  13.8552  13.8552
    15.4885  17.1978  17.8387  17.8387  18.6661  20.3785  23.0046  23.7996
    23.7996  23.9869  28.0647  28.5215  28.5215  28.6240  30.2043  31.9460

          k = 0.9167-0.0833 0.9167 (  1622 PWs)   bands (ev):

    -4.3506  -1.7952   2.1759   2.4778   6.5822   7.1417  14.0290  14.1128
    15.8115  16.7128  17.2798  18.2511  19.1024  19.9830  23.0400  24.4180
    25.0345  25.4635  26.4686  27.4147  27.5899  28.4893  29.7850  31.2462

          k = 0.8333 0.0000 0.8333 (  1614 PWs)   bands (ev):

    -4.2288  -1.8845   1.6400   2.5807   6.7472   8.1869  13.6021  13.7105
    14.3611  15.5486  18.2829  19.7001  20.1583  20.1937  22.6683  23.2780
    25.4010  26.5507  26.5797  26.8692  27.5944  28.5788  29.9118  31.0626

          k = 0.0000-1.0000 0.0000 (  1604 PWs)   bands (ev):

    -4.2304  -1.9715   2.4095   2.4095   6.4456   6.6837  14.7357  14.7357
    16.5341  16.9124  16.9124  18.0285  18.3172  19.0183  24.1980  25.2212
    25.7210  25.7210  26.2827  26.2827  26.7593  27.1195  30.3854  31.2605

          k =-0.1667 0.3333 0.0000 (  1603 PWs)   bands (ev):

    -6.5599   1.9654   3.5542   4.2208   7.8996   8.2967   9.6078  10.1505
    12.4767  14.2206  15.7838  17.5945  18.5708  20.2426  23.1967  24.2276
    25.3865  26.3623  27.7234  28.1005  30.5944  32.1395  33.0899  35.8049

          k =-0.2500 0.4167-0.0833 (  1607 PWs)   bands (ev):

    -6.1807   0.8596   3.0615   4.0008   7.8941   8.6692  10.0312  10.5055
    12.8448  14.7850  16.2074  17.9746  19.5717  21.3278  21.6464  23.5266
    24.9911  26.5830  27.3692  28.3522  30.4638  32.0819  33.2806  34.6170

          k =-0.3333 0.5000-0.1667 (  1604 PWs)   bands (ev):

    -5.7025  -0.2562   2.7691   3.7357   7.7229   8.9963  10.1428  11.1266
    13.6950  15.6429  16.1901  18.1103  19.7780  20.9310  22.2909  23.1349
    24.5865  27.0595  27.8424  29.4738  30.1570  30.4671  32.4208  34.1863

          k = 0.5833-0.4167 0.7500 (  1612 PWs)   bands (ev):

    -5.2330  -1.1418   2.6171   3.5354   7.5881   9.0303  10.1232  12.2019
    14.5980  15.4485  16.9702  17.5350  18.6928  20.9816  22.5298  24.4645
    25.5971  27.2004  27.4741  28.5148  29.8388  31.2053  32.2098  33.2437

          k = 0.5000-0.3333 0.6667 (  1602 PWs)   bands (ev):

    -5.0122  -1.5057   2.5708   3.4615   7.5398   9.0099  10.1005  13.1296
    14.1473  15.9977  16.8639  17.2507  18.9963  19.6589  24.3050  24.9557
    26.1022  26.4729  26.9797  27.8077  30.9039  31.0904  31.7784  32.9664

          k =-0.1667 0.5000 0.0000 (  1617 PWs)   bands (ev):

    -6.0439   0.7839   2.9438   3.4823   7.4658   8.7198  10.3492  10.9528
    13.0867  15.1916  16.9628  18.4241  19.4658  20.9078  21.5701  23.3297
    24.5672  26.0344  26.4376  29.6774  30.4271  31.9625  33.2729  34.3440

          k =-0.2500 0.5833-0.0833 (  1611 PWs)   bands (ev):

    -5.6003  -0.1192   2.4511   3.2519   7.7185   9.0022  10.1519  11.3722
    14.0391  16.1971  16.7229  18.5730  19.7924  20.5533  21.8736  23.7369
    24.2272  25.7991  26.8628  29.6735  30.1115  30.9889  32.3119  33.4859

          k = 0.6667-0.3333 0.8333 (  1617 PWs)   bands (ev):

    -5.1222  -0.9569   2.0920   3.0823   7.7857   9.4734  10.3905  11.4521
    14.8971  15.8317  17.5390  17.8965  19.0288  21.5540  23.1833  23.6477
    24.3376  26.1810  26.9784  28.5435  29.0980  31.2933  32.0706  32.7879

          k = 0.5833-0.2500 0.7500 (  1607 PWs)   bands (ev):

    -4.8004  -1.4524   1.8562   3.0668   7.8524   9.4112  11.1260  11.8557
    13.7364  16.2394  17.1610  18.1289  19.5563  21.7332  23.3699  24.1918
    25.0848  25.5308  27.0365  27.5343  30.1730  30.9137  31.5760  32.7538

          k = 0.5000-0.1667 0.6667 (  1605 PWs)   bands (ev):

    -4.8843  -1.3245   1.7689   3.2081   8.0013   9.3313  11.0583  12.1434
    13.4572  14.9288  17.8922  18.6837  19.9811  21.4536  22.3415  24.1185
    25.0679  26.1184  26.8367  28.3502  30.1273  31.0166  31.6546  32.9411

          k = 0.4167-0.0833 0.5833 (  1610 PWs)   bands (ev):

    -5.2955  -0.6752   1.8848   3.4681   8.2039   9.2515  10.6053  11.2795
    13.5559  15.1733  17.6967  18.4412  20.2147  20.8559  22.7671  23.2058
    24.2621  26.4192  27.6839  28.9186  29.9301  31.3938  31.6769  32.6594

          k = 0.3333 0.0000 0.5000 (  1606 PWs)   bands (ev):

    -5.7740   0.1406   2.2944   3.7750   8.3195   8.8573  10.2957  10.7044
    12.9673  16.0132  16.5289  18.3397  19.5642  21.1394  21.9080  23.8161
    24.4557  26.4354  26.8814  29.4965  30.1018  31.0557  32.9792  33.3773

          k =-0.1667 0.6667-0.0000 (  1626 PWs)   bands (ev):

    -5.3672  -0.3783   2.4821   2.8370   7.0976   8.1588  11.2997  12.4078
    14.4485  16.4594  17.2827  19.1129  19.7099  20.6029  21.7954  22.9142
    23.7927  24.5977  27.4642  29.5071  30.1004  30.8280  32.5311  32.8364

          k = 0.7500-0.2500 0.9167 (  1621 PWs)   bands (ev):

    -4.9132  -1.0449   1.9810   2.6606   7.4057   8.6164  11.0522  12.7686
    15.1715  16.1433  17.7051  18.3327  20.1893  20.6538  22.7403  22.9518
    24.8881  25.2970  26.8256  27.9921  29.1254  29.8101  31.4964  33.8766

          k = 0.6667-0.1667 0.8333 (  1616 PWs)   bands (ev):

    -4.5519  -1.5125   1.5257   2.6647   7.5471   9.7804  10.8313  12.6621
    13.9132  16.3115  17.4282  19.3981  20.1157  21.5995  23.4012  23.7200
    24.3424  24.9094  26.5273  28.0497  28.7317  29.8213  30.7282  33.6180

          k = 0.5833-0.0833 0.7500 (  1614 PWs)   bands (ev):

    -4.5246  -1.5360   1.2799   2.8322   7.7544  10.4609  11.2715  12.1684
    12.8290  14.9075  18.8383  19.6376  21.1763  21.6282  22.6797  22.7576
    24.2463  25.3976  27.1106  27.9662  28.7736  30.4943  32.1995  32.4326

          k = 0.5000 0.0000 0.6667 (  1621 PWs)   bands (ev):

    -4.8502  -1.1497   1.3670   3.1229   8.0414  10.1381  10.7597  12.1576
    13.2404  14.0449  19.1703  19.8158  20.0750  21.2087  22.4073  23.1937
    24.1969  25.4478  27.8334  28.8898  29.3170  30.3645  31.7922  32.7611

          k = 0.8333-0.1667 1.0000 (  1617 PWs)   bands (ev):

    -4.6312  -1.4143   2.2208   2.3968   6.9371   7.5162  12.6089  13.8174
    15.5832  16.4797  17.6251  18.2695  19.4512  21.3861  21.9430  23.0715
    24.7853  25.3569  27.1242  27.4442  28.8898  29.3813  30.0768  31.7863

          k = 0.7500-0.0833 0.9167 (  1620 PWs)   bands (ev):

    -4.3181  -1.7552   1.7177   2.3586   7.2312   8.2822  12.3493  13.5750
    14.7033  16.3191  17.5858  19.2121  20.1706  21.6260  22.0236  23.8185
    24.6119  25.9937  26.5503  27.0213  28.3589  29.1389  29.6772  31.5152

          k = 0.6667 0.0000 0.8333 (  1620 PWs)   bands (ev):

    -4.2788  -1.7615   1.3005   2.5293   7.4436   9.6840  11.9320  12.3313
    13.9881  15.2864  18.5499  20.0568  21.2016  21.8971  22.2562  22.5108
    24.6962  25.2887  26.7045  27.7639  28.0989  29.1616  31.4568  32.0091

          k =-0.1667-1.0000 0.0000 (  1622 PWs)   bands (ev):

    -4.2165  -1.9314   2.1695   2.2097   6.9586   7.2084  13.8394  13.9930
    15.6393  16.2596  17.7419  18.2517  19.7637  19.8910  23.5675  24.1254
    25.1027  25.4202  26.8254  27.1460  27.8087  27.9242  29.8236  30.4974

          k = 0.6667-0.3333 1.0000 (  1610 PWs)   bands (ev):

    -5.1558  -0.7273   1.8702   2.9579   8.3649   9.0647   9.8524  12.2970
    14.2137  15.4803  17.8645  19.2379  19.7927  20.5314  22.2078  23.4281
    24.8199  25.8575  27.1264  28.4866  29.0932  30.3588  32.6449  32.9393

          k = 0.5833-0.2500 0.9167 (  1611 PWs)   bands (ev):

    -4.7244  -1.2958   1.5462   2.6857   8.6376   9.3195  10.2237  12.6814
    13.5443  15.4082  18.3798  19.2130  20.3608  21.1475  22.5359  23.8891
    24.5801  25.8387  26.5469  28.0715  28.7610  29.8983  31.6758  33.3800

          k = 0.5000-0.1667 0.8333 (  1610 PWs)   bands (ev):

    -4.5236  -1.5523   1.4481   2.5799   8.6799   9.2398  11.2714  12.0746
    12.9701  16.4520  17.2658  19.3463  21.1109  21.8981  22.7143  23.5510
    24.4824  25.5447  26.4295  27.4771  28.7257  30.8897  31.9782  32.1087

          k = 0.6667-0.1667 1.0000 (  1618 PWs)   bands (ev):

    -4.5176  -1.4819   1.6932   2.2553   8.2290   8.7180  10.7461  13.3525
    14.2866  15.9961  18.0381  19.4181  20.1722  21.3125  22.4802  23.4521
    25.1813  25.8088  26.4744  26.9554  28.2161  29.3576  30.8826  33.3951

          k = 0.5833-0.0833 0.9167 (  1615 PWs)   bands (ev):

    -4.2845  -1.7147   1.4330   2.1250   8.5684   9.7887  10.5162  11.8732
    14.4421  16.3589  17.5860  19.5252  21.1852  22.1120  23.1524  23.8321
    24.2097  24.7842  26.1719  26.5624  28.3474  30.0786  31.4354  33.5206

          k = 0.5000 0.0000 0.8333 (  1612 PWs)   bands (ev):

    -4.3821  -1.6088   1.3260   2.3139   8.8051  10.0302  10.3263  11.7101
    14.0091  15.6092  18.3560  19.8851  20.8127  22.0819  22.4905  23.8951
    24.5199  24.9806  26.2750  26.7784  28.4212  30.5269  31.8489  33.1748

          k =-0.3333-1.0000 0.0000 (  1618 PWs)   bands (ev):

    -4.1877  -1.8448   1.7579   1.8778   8.2232   8.4875  11.9610  12.1754
    15.4635  16.0585  18.0157  18.3872  21.6379  21.9603  22.7967  23.3751
    24.5263  24.8660  26.5032  26.6600  28.7719  28.8156  31.0362  31.1724

          k =-0.5000-1.0000 0.0000 (  1628 PWs)   bands (ev):

    -4.1731  -1.7977   1.5732   1.7344   9.5874   9.8628  10.3663  10.5948
    15.4484  16.0279  18.0890  18.4606  22.2668  22.3747  23.6774  24.1422
    24.2822  24.6635  24.8840  25.4649  29.2284  29.3568  33.5037  33.5459

     the Fermi energy is     7.5623 ev

     Writing output data file Si.save

     init_run     :      0.38s CPU      0.39s WALL (       1 calls)
     electrons    :     82.89s CPU     83.34s WALL (       1 calls)

     Called by init_run:
     wfcinit      :      0.00s CPU      0.00s WALL (       1 calls)
     potinit      :      0.08s CPU      0.08s WALL (       1 calls)

     Called by electrons:
     c_bands      :     82.47s CPU     82.92s WALL (       1 calls)
     v_of_rho     :      0.07s CPU      0.07s WALL (       1 calls)

     Called by c_bands:
     init_us_2    :      0.12s CPU      0.12s WALL (      72 calls)
     cegterg      :     74.72s CPU     75.10s WALL (     101 calls)

     Called by *egterg:
     h_psi        :     58.01s CPU     58.37s WALL (    1683 calls)
     g_psi        :      0.15s CPU      0.15s WALL (    1510 calls)
     cdiaghg      :      4.50s CPU      4.53s WALL (    1582 calls)

     Called by h_psi:
     add_vuspsi   :      1.56s CPU      1.57s WALL (    1683 calls)

     General routines
     calbec       :      1.73s CPU      1.74s WALL (    1683 calls)
     fft          :      0.03s CPU      0.04s WALL (      10 calls)
     fftw         :     52.03s CPU     52.35s WALL (   43678 calls)
     davcio       :      0.01s CPU      0.04s WALL (      72 calls)

     Parallel routines
     fft_scatter  :      1.27s CPU      1.27s WALL (   43688 calls)

     PWSCF        :  1m25.46s CPU     1m25.99s WALL


   This run was terminated on:  20:19:45  12Feb2023            

=------------------------------------------------------------------------------=
   JOB DONE.
=------------------------------------------------------------------------------=
