
     Program PWSCF v.5.1 starts on 12Feb2023 at 20:17:45 

     This program is part of the open-source Quantum ESPRESSO suite
     for quantum simulation of materials; please cite
         "P. Giannozzi et al., J. Phys.:Condens. Matter 21 395502 (2009);
          URL http://www.quantum-espresso.org", 
     in publications or presentations arising from this work. More details at
     http://www.quantum-espresso.org/quote

     Parallel version (MPI), running on     1 processors
     Waiting for input...
     Reading input from standard input
Warning: card   SI    0.0000000000D0   0.5000000000D0   0.5000000000D0 ignored
Warning: card   SI    0.2500000000D0   0.7500000000D0   0.7500000000D0 ignored
Warning: card   SI   -0.5000000000D0   0.0000000000D0   0.5000000000D0 ignored
Warning: card   SI   -0.2500000000D0   0.2500000000D0   0.7500000000D0 ignored
Warning: card   SI   -0.5000000000D0   0.5000000000D0   0.10000000000D0 ignored
Warning: card   SI   -0.2500000000D0   0.7500000000D0   1.25000000000D0 ignored

     Current dimensions of program PWSCF are:
     Max number of different atomic species (ntypx) = 10
     Max number of k-points (npk) =  40000
     Max angular momentum in pseudopotentials (lmaxx) =  3
               file Si.pbe-mt_fhi.UPF: wavefunction(s)  4f renormalized
               file P.pbe-mt_fhi.UPF: wavefunction(s)  4f renormalized

     Subspace diagonalization in iterative solution of the eigenvalue problem:
     a serial algorithm will be used


     G-vector sticks info
     --------------------
     sticks:   dense  smooth     PW     G-vecs:    dense   smooth      PW
     Sum         733     733    211                12939    12939    2109



     bravais-lattice index     =            2
     lattice parameter (alat)  =      10.2623  a.u.
     unit-cell volume          =     270.1967 (a.u.)^3
     number of atoms/cell      =            2
     number of atomic types    =            2
     number of electrons       =         9.00
     number of Kohn-Sham states=           24
     kinetic-energy cutoff     =      50.0000  Ry
     charge density cutoff     =     200.0000  Ry
     convergence threshold     =      1.6E-09
     mixing beta               =       0.3000
     number of iterations used =            8  plain     mixing
     Exchange-correlation      = PBE ( 1  4  3  4 0)

     celldm(1)=  10.262347  celldm(2)=   0.000000  celldm(3)=   0.000000
     celldm(4)=   0.000000  celldm(5)=   0.000000  celldm(6)=   0.000000

     crystal axes: (cart. coord. in units of alat)
               a(1) = (  -0.500000   0.000000   0.500000 )  
               a(2) = (   0.000000   0.500000   0.500000 )  
               a(3) = (  -0.500000   0.500000   0.000000 )  

     reciprocal axes: (cart. coord. in units 2 pi/alat)
               b(1) = ( -1.000000 -1.000000  1.000000 )  
               b(2) = (  1.000000  1.000000  1.000000 )  
               b(3) = ( -1.000000  1.000000 -1.000000 )  


     PseudoPot. # 1 for Si read from file:
     /home/acedemo/psudo/Si.pbe-mt_fhi.UPF
     MD5 check sum: 259057c2adf9952f9ced37ae3d9e311d
     Pseudo is Norm-conserving, Zval =  4.0
     Generated using FHI98PP, converted with fhi2upf.x v.5.0.2
     Using radial grid of  495 points,  3 beta functions with: 
                l(1) =   0
                l(2) =   1
                l(3) =   3

     PseudoPot. # 2 for  P read from file:
     /home/acedemo/psudo/P.pbe-mt_fhi.UPF
     MD5 check sum: 7191c457fb61afa58d0f00d0e4a443c1
     Pseudo is Norm-conserving, Zval =  5.0
     Generated using FHI98PP, converted with fhi2upf.x v.5.0.2
     Using radial grid of  499 points,  3 beta functions with: 
                l(1) =   0
                l(2) =   1
                l(3) =   3

     atomic species   valence    mass     pseudopotential
        Si             4.00    28.08550     Si( 1.00)
        P              5.00    30.97376      P( 1.00)

     24 Sym. Ops. (no inversion) found



   Cartesian axes

     site n.     atom                  positions (alat units)
         1           P   tau(   1) = (   0.0000000   0.0000000   0.0000000  )
         2           Si  tau(   2) = (   0.2500000   0.2500000   0.2500000  )

     number of k points=    10  Marzari-Vanderbilt smearing, width (Ry)=  0.0500
                       cart. coord. in units 2pi/alat
        k(    1) = (   0.0000000   0.0000000   0.0000000), wk =   0.0160000
        k(    2) = (  -0.2000000   0.2000000  -0.2000000), wk =   0.1280000
        k(    3) = (  -0.4000000   0.4000000  -0.4000000), wk =   0.1280000
        k(    4) = (   0.0000000   0.4000000   0.0000000), wk =   0.0960000
        k(    5) = (  -0.2000000   0.6000000  -0.2000000), wk =   0.3840000
        k(    6) = (   0.6000000  -0.2000000   0.6000000), wk =   0.3840000
        k(    7) = (   0.4000000   0.0000000   0.4000000), wk =   0.1920000
        k(    8) = (   0.0000000   0.8000000   0.0000000), wk =   0.0960000
        k(    9) = (   0.8000000   0.0000000   0.8000000), wk =   0.1920000
        k(   10) = (   0.6000000  -0.2000000   1.0000000), wk =   0.3840000

     Dense  grid:    12939 G-vectors     FFT dimensions: (  36,  36,  36)

     Largest allocated arrays     est. size (Mb)     dimensions
        Kohn-Sham Wavefunctions         0.60 Mb     (    1639,   24)
        NL pseudopotentials             0.55 Mb     (    1639,   22)
        Each V/rho on FFT grid          0.71 Mb     (   46656)
        Each G-vector array             0.10 Mb     (   12939)
        G-vector shells                 0.00 Mb     (     180)
     Largest temporary arrays     est. size (Mb)     dimensions
        Auxiliary wavefunctions         2.40 Mb     (    1639,   96)
        Each subspace H/S matrix        0.14 Mb     (      96,   96)
        Each <psi_i|beta_j> matrix      0.01 Mb     (      22,   24)
        Arrays for rho mixing           5.70 Mb     (   46656,    8)

     Initial potential from superposition of free atoms

     starting charge    8.99918, renormalised to    9.00000
     Starting wfc are   32 randomized atomic wfcs

     total cpu time spent up to now is        1.5 secs

     per-process dynamical memory:    20.5 Mb

     Self-consistent Calculation

     iteration #  1     ecut=    50.00 Ry     beta=0.30
     Davidson diagonalization with overlap
     ethr =  1.00E-02,  avg # of iterations =  4.6

     Threshold (ethr) on eigenvalues was too large:
     Diagonalizing with lowered threshold

     Davidson diagonalization with overlap
     ethr =  3.90E-04,  avg # of iterations =  1.4

     total cpu time spent up to now is        7.9 secs

     total energy              =     -21.06031105 Ry
     Harris-Foulkes estimate   =     -21.06631622 Ry
     estimated scf accuracy    <       0.03508336 Ry

     iteration #  2     ecut=    50.00 Ry     beta=0.30
     Davidson diagonalization with overlap
     ethr =  3.90E-04,  avg # of iterations =  1.0

     total cpu time spent up to now is       10.5 secs

     total energy              =     -21.05853332 Ry
     Harris-Foulkes estimate   =     -21.06114001 Ry
     estimated scf accuracy    <       0.01283784 Ry

     iteration #  3     ecut=    50.00 Ry     beta=0.30
     Davidson diagonalization with overlap
     ethr =  1.43E-04,  avg # of iterations =  1.0

     total cpu time spent up to now is       13.0 secs

     total energy              =     -21.05893610 Ry
     Harris-Foulkes estimate   =     -21.05911324 Ry
     estimated scf accuracy    <       0.00119304 Ry

     iteration #  4     ecut=    50.00 Ry     beta=0.30
     Davidson diagonalization with overlap
     ethr =  1.33E-05,  avg # of iterations =  1.0

     total cpu time spent up to now is       15.3 secs

     total energy              =     -21.05898292 Ry
     Harris-Foulkes estimate   =     -21.05899090 Ry
     estimated scf accuracy    <       0.00004090 Ry

     iteration #  5     ecut=    50.00 Ry     beta=0.30
     Davidson diagonalization with overlap
     ethr =  4.54E-07,  avg # of iterations =  1.7

     total cpu time spent up to now is       17.2 secs

     total energy              =     -21.05898633 Ry
     Harris-Foulkes estimate   =     -21.05898632 Ry
     estimated scf accuracy    <       0.00000028 Ry

     iteration #  6     ecut=    50.00 Ry     beta=0.30
     Davidson diagonalization with overlap
     ethr =  3.14E-09,  avg # of iterations =  2.2

     total cpu time spent up to now is       19.5 secs

     total energy              =     -21.05898661 Ry
     Harris-Foulkes estimate   =     -21.05898646 Ry
     estimated scf accuracy    <       0.00000004 Ry

     iteration #  7     ecut=    50.00 Ry     beta=0.30
     Davidson diagonalization with overlap
     ethr =  4.35E-10,  avg # of iterations =  2.2

     total cpu time spent up to now is       22.1 secs

     total energy              =     -21.05898663 Ry
     Harris-Foulkes estimate   =     -21.05898663 Ry
     estimated scf accuracy    <          2.8E-09 Ry

     iteration #  8     ecut=    50.00 Ry     beta=0.30
     Davidson diagonalization with overlap
     ethr =  3.12E-11,  avg # of iterations =  1.0

     total cpu time spent up to now is       24.1 secs

     End of self-consistent calculation

          k = 0.0000 0.0000 0.0000 (  1639 PWs)   bands (ev):

    -7.0970   4.7901   4.7901   4.7901   6.5835   8.3182   8.3182   8.3182
    13.8725  13.9338  13.9338  17.4566  17.4566  17.4566  21.5735  28.6513
    28.6513  28.6513  29.6269  29.6269  29.6897  29.6897  29.6897  35.7030

          k =-0.2000 0.2000-0.2000 (  1606 PWs)   bands (ev):

    -6.6352   1.8667   4.3509   4.3509   7.0420   8.9963   8.9963  10.2572
    13.3068  13.3068  15.1437  16.9498  19.7699  19.7699  23.5241  24.6895
    24.6895  25.3425  29.3938  29.3938  30.8830  30.8830  32.7260  35.4642

          k =-0.4000 0.4000-0.4000 (  1616 PWs)   bands (ev):

    -5.5125  -1.0317   3.8666   3.8666   6.4592   9.2550   9.2550  13.2857
    14.9521  14.9521  15.1240  18.6195  18.8663  18.8663  22.3921  25.1054
    25.1054  28.3656  29.1090  29.1090  29.7014  31.4345  31.4345  33.8418

          k = 0.0000 0.4000 0.0000 (  1607 PWs)   bands (ev):

    -6.4753   1.9295   3.6346   3.6346   7.2407   8.7406  10.2647  10.2647
    12.1308  14.6945  16.1846  18.5789  18.5789  19.2006  23.9917  23.9917
    25.2822  25.6400  25.7740  29.8221  31.4321  31.9925  31.9925  36.4462

          k =-0.2000 0.6000-0.2000 (  1619 PWs)   bands (ev):

    -5.5129  -0.3650   2.6109   3.1720   7.4032   9.2995  10.4312  10.9714
    14.8620  16.0822  16.5838  18.4653  19.0182  20.8366  22.5623  23.6911
    24.3186  25.5318  27.0945  29.4188  29.9288  31.5949  32.0033  33.4714

          k = 0.6000-0.2000 0.6000 (  1596 PWs)   bands (ev):

    -4.8910  -1.4175   1.8887   3.3944   7.5516   9.8250  10.4818  12.7031
    13.7807  14.4105  17.6177  18.9676  19.7277  20.5168  22.9499  24.8950
    25.2186  25.7082  27.1342  27.9471  30.8364  31.3682  32.2547  32.3819

          k = 0.4000 0.0000 0.4000 (  1610 PWs)   bands (ev):

    -5.9175   0.3528   2.3858   4.1106   7.9888   9.5869   9.6757  10.7635
    12.4266  15.7012  16.4276  18.0754  19.6008  20.9186  22.6338  23.2391
    24.9990  26.5996  27.0228  28.4754  31.0618  31.4406  32.8377  33.7000

          k = 0.0000 0.8000 0.0000 (  1624 PWs)   bands (ev):

    -4.8236  -1.1907   2.5546   2.5546   6.4034   7.1642  13.5828  13.5828
    15.1782  16.9479  18.1212  18.1212  18.7602  20.7340  22.6634  23.4308
    23.4308  23.7600  28.4782  28.7477  29.0329  29.0329  30.4372  32.1583

          k = 0.8000 0.0000 0.8000 (  1622 PWs)   bands (ev):

    -4.2463  -1.8431   1.4588   2.6542   6.8326   8.7447  13.2468  13.4089
    13.8969  15.1888  18.6027  20.0997  20.4845  20.7571  22.2117  22.8464
    25.3737  26.0462  26.9345  27.1429  27.8445  28.6258  30.3620  31.3506

          k = 0.6000-0.2000 1.0000 (  1616 PWs)   bands (ev):

    -4.5677  -1.4170   1.5153   2.3905   8.8306   9.3507   9.8991  12.9785
    13.8099  15.5671  18.4406  19.7624  20.2508  21.2469  22.1712  24.2195
    24.9829  25.3664  26.3572  27.3514  28.2905  29.8125  31.3800  33.5702

     the Fermi energy is     7.4606 ev

!    total energy              =     -21.05898663 Ry
     Harris-Foulkes estimate   =     -21.05898663 Ry
     estimated scf accuracy    <          1.5E-10 Ry

     The total energy is the sum of the following terms:

     one-electron contribution =       4.29898567 Ry
     hartree contribution      =       1.81229741 Ry
     xc contribution           =      -5.72148207 Ry
     ewald contribution        =     -21.44312514 Ry
     smearing contrib. (-TS)   =      -0.00566250 Ry

     convergence has been achieved in   8 iterations

     Forces acting on atoms (Ry/au):

     atom    1 type  2   force =     0.00000000    0.00000000    0.00000000
     atom    2 type  1   force =    -0.00000000   -0.00000000   -0.00000000

     Total force =     0.000000     Total SCF correction =     0.000000


     entering subroutine stress ...

          total   stress  (Ry/bohr**3)                   (kbar)     P=  -34.39
  -0.00023378  -0.00000000  -0.00000000        -34.39     -0.00     -0.00
  -0.00000000  -0.00023378   0.00000000         -0.00    -34.39      0.00
  -0.00000000   0.00000000  -0.00023378         -0.00      0.00    -34.39


     Writing output data file Si.save

     init_run     :      1.28s CPU      1.35s WALL (       1 calls)
     electrons    :     21.93s CPU     22.62s WALL (       1 calls)
     forces       :      0.13s CPU      0.13s WALL (       1 calls)
     stress       :      0.77s CPU      0.80s WALL (       1 calls)

     Called by init_run:
     wfcinit      :      1.01s CPU      1.03s WALL (       1 calls)
     potinit      :      0.04s CPU      0.04s WALL (       1 calls)

     Called by electrons:
     c_bands      :     18.02s CPU     18.63s WALL (       9 calls)
     sum_band     :      3.51s CPU      3.57s WALL (       9 calls)
     v_of_rho     :      0.40s CPU      0.41s WALL (       9 calls)
     mix_rho      :      0.02s CPU      0.02s WALL (       9 calls)

     Called by c_bands:
     init_us_2    :      0.38s CPU      0.39s WALL (     210 calls)
     cegterg      :     17.74s CPU     18.34s WALL (      90 calls)

     Called by *egterg:
     h_psi        :     15.28s CPU     15.81s WALL (     261 calls)
     g_psi        :      0.03s CPU      0.03s WALL (     161 calls)
     cdiaghg      :      0.47s CPU      0.48s WALL (     241 calls)

     Called by h_psi:
     add_vuspsi   :      0.44s CPU      0.46s WALL (     261 calls)

     General routines
     calbec       :      0.53s CPU      0.56s WALL (     281 calls)
     fft          :      0.17s CPU      0.17s WALL (     108 calls)
     fftw         :     16.61s CPU     17.14s WALL (   12362 calls)
     davcio       :      0.00s CPU      0.00s WALL (      10 calls)

     Parallel routines
     fft_scatter  :      0.44s CPU      0.45s WALL (   12470 calls)

     PWSCF        :    24.26s CPU        25.07s WALL


   This run was terminated on:  20:18:10  12Feb2023            

=------------------------------------------------------------------------------=
   JOB DONE.
=------------------------------------------------------------------------------=
