
     Program PWSCF v.5.1 starts on 13Feb2023 at 16:59:19 

     This program is part of the open-source Quantum ESPRESSO suite
     for quantum simulation of materials; please cite
         "P. Giannozzi et al., J. Phys.:Condens. Matter 21 395502 (2009);
          URL http://www.quantum-espresso.org", 
     in publications or presentations arising from this work. More details at
     http://www.quantum-espresso.org/quote

     Parallel version (MPI), running on     1 processors
     Waiting for input...
     Reading input from standard input

     Current dimensions of program PWSCF are:
     Max number of different atomic species (ntypx) = 10
     Max number of k-points (npk) =  40000
     Max angular momentum in pseudopotentials (lmaxx) =  3

     Atomic positions and unit cell read from directory:
     ./out/Si.save/

               file Si.pbe-mt_fhi.UPF: wavefunction(s)  4f renormalized

     Subspace diagonalization in iterative solution of the eigenvalue problem:
     a serial algorithm will be used


     G-vector sticks info
     --------------------
     sticks:   dense  smooth     PW     G-vecs:    dense   smooth      PW
     Sum         733     733    211                12939    12939    2109



     bravais-lattice index     =            2
     lattice parameter (alat)  =      10.2623  a.u.
     unit-cell volume          =     270.1967 (a.u.)^3
     number of atoms/cell      =            2
     number of atomic types    =            1
     number of electrons       =         8.10
     number of Kohn-Sham states=           10
     kinetic-energy cutoff     =      50.0000  Ry
     charge density cutoff     =     200.0000  Ry
     Exchange-correlation      = PBE ( 1  4  3  4 0)

     celldm(1)=  10.262347  celldm(2)=   0.000000  celldm(3)=   0.000000
     celldm(4)=   0.000000  celldm(5)=   0.000000  celldm(6)=   0.000000

     crystal axes: (cart. coord. in units of alat)
               a(1) = (  -0.500000   0.000000   0.500000 )  
               a(2) = (   0.000000   0.500000   0.500000 )  
               a(3) = (  -0.500000   0.500000   0.000000 )  

     reciprocal axes: (cart. coord. in units 2 pi/alat)
               b(1) = ( -1.000000 -1.000000  1.000000 )  
               b(2) = (  1.000000  1.000000  1.000000 )  
               b(3) = ( -1.000000  1.000000 -1.000000 )  


     PseudoPot. # 1 for Si read from file:
     /home/acedemo/psudo/Si.pbe-mt_fhi.UPF
     MD5 check sum: 259057c2adf9952f9ced37ae3d9e311d
     Pseudo is Norm-conserving, Zval =  4.0
     Generated using FHI98PP, converted with fhi2upf.x v.5.0.2
     Using radial grid of  495 points,  3 beta functions with: 
                l(1) =   0
                l(2) =   1
                l(3) =   3

     atomic species   valence    mass     pseudopotential
        Si             4.00    28.08550     Si( 1.00)

     48 Sym. Ops., with inversion, found (24 have fractional translation)



   Cartesian axes

     site n.     atom                  positions (alat units)
         1           Si  tau(   1) = (   0.0000000   0.0000000   0.0000000  )
         2           Si  tau(   2) = (   0.2500000   0.2500000   0.2500000  )

     number of k points=    51  Marzari-Vanderbilt smearing, width (Ry)=  0.0500
                       cart. coord. in units 2pi/alat
        k(    1) = (   0.5000000   0.5000000   0.5000000), wk =   0.0000000
        k(    2) = (   0.4500000   0.4500000   0.4500000), wk =   0.0014779
        k(    3) = (   0.4000000   0.4000000   0.4000000), wk =   0.0029558
        k(    4) = (   0.3500000   0.3500000   0.3500000), wk =   0.0044337
        k(    5) = (   0.3000000   0.3000000   0.3000000), wk =   0.0059116
        k(    6) = (   0.2500000   0.2500000   0.2500000), wk =   0.0073895
        k(    7) = (   0.2000000   0.2000000   0.2000000), wk =   0.0088674
        k(    8) = (   0.1500000   0.1500000   0.1500000), wk =   0.0103453
        k(    9) = (   0.1000000   0.1000000   0.1000000), wk =   0.0118232
        k(   10) = (   0.0500000   0.0500000   0.0500000), wk =   0.0133011
        k(   11) = (   0.0000000   0.0000000   0.0000000), wk =   0.0147790
        k(   12) = (   0.0000000   0.1000000   0.0000000), wk =   0.0168691
        k(   13) = (   0.0000000   0.2000000   0.0000000), wk =   0.0189591
        k(   14) = (   0.0000000   0.3000000   0.0000000), wk =   0.0210492
        k(   15) = (   0.0000000   0.4000000   0.0000000), wk =   0.0231392
        k(   16) = (   0.0000000   0.5000000   0.0000000), wk =   0.0252293
        k(   17) = (   0.0000000   0.6000000   0.0000000), wk =   0.0273194
        k(   18) = (   0.0000000   0.7000000   0.0000000), wk =   0.0294094
        k(   19) = (   0.0000000   0.8000000   0.0000000), wk =   0.0314995
        k(   20) = (   0.0000000   0.9000000   0.0000000), wk =   0.0335896
        k(   21) = (   0.0000000   1.0000000   0.0000000), wk =   0.0356796
        k(   22) = (   0.0000000   0.9750000   0.0750000), wk =   0.0370621
        k(   23) = (   0.0000000   0.9500000   0.1500000), wk =   0.0384445
        k(   24) = (  -0.0000000   0.9250000   0.2250000), wk =   0.0398270
        k(   25) = (  -0.0000000   0.9000000   0.3000000), wk =   0.0412094
        k(   26) = (   0.0000000   0.8750000   0.3750000), wk =   0.0425919
        k(   27) = (   0.0000000   0.8500000   0.4500000), wk =   0.0439743
        k(   28) = (   0.0000000   0.8250000   0.5250000), wk =   0.0453568
        k(   29) = (  -0.0000000   0.8000000   0.6000000), wk =   0.0467392
        k(   30) = (  -0.0000000   0.7750000   0.6750000), wk =   0.0481217
        k(   31) = (   0.0000000   0.7500000   0.7500000), wk =   0.0495041
        k(   32) = (   0.0000000   0.7250000   0.7750000), wk =   0.0500266
        k(   33) = (   0.0000000   0.7000000   0.8000000), wk =   0.0505491
        k(   34) = (   0.0000000   0.6750000   0.8250000), wk =   0.0510717
        k(   35) = (   0.0000000   0.6500000   0.8500000), wk =   0.0515942
        k(   36) = (   0.0000000   0.6250000   0.8750000), wk =   0.0521167
        k(   37) = (   0.0000000   0.6000000   0.9000000), wk =   0.0526392
        k(   38) = (   0.0000000   0.5750000   0.9250000), wk =   0.0531617
        k(   39) = (   0.0000000   0.5500000   0.9500000), wk =   0.0536842
        k(   40) = (   0.0000000   0.5250000   0.9750000), wk =   0.0542067
        k(   41) = (   0.0000000   0.5000000   1.0000000), wk =   0.0547293
        k(   42) = (   0.0000000   0.4500000   0.9000000), wk =   0.0574942
        k(   43) = (  -0.0000000   0.4000000   0.8000000), wk =   0.0602591
        k(   44) = (  -0.0000000   0.3500000   0.7000000), wk =   0.0630239
        k(   45) = (  -0.0000000   0.3000000   0.6000000), wk =   0.0657888
        k(   46) = (   0.0000000   0.2500000   0.5000000), wk =   0.0685537
        k(   47) = (   0.0000000   0.2000000   0.4000000), wk =   0.0713186
        k(   48) = (   0.0000000   0.1500000   0.3000000), wk =   0.0740835
        k(   49) = (  -0.0000000   0.1000000   0.2000000), wk =   0.0768484
        k(   50) = (  -0.0000000   0.0500000   0.1000000), wk =   0.0796133
        k(   51) = (   0.0000000   0.0000000   0.0000000), wk =   0.0823782

     Dense  grid:    12939 G-vectors     FFT dimensions: (  36,  36,  36)

     Largest allocated arrays     est. size (Mb)     dimensions
        Kohn-Sham Wavefunctions         0.25 Mb     (    1639,   10)
        NL pseudopotentials             0.55 Mb     (    1639,   22)
        Each V/rho on FFT grid          0.71 Mb     (   46656)
        Each G-vector array             0.10 Mb     (   12939)
        G-vector shells                 0.00 Mb     (     180)
     Largest temporary arrays     est. size (Mb)     dimensions
        Auxiliary wavefunctions         1.00 Mb     (    1639,   40)
        Each subspace H/S matrix        0.02 Mb     (      40,   40)
        Each <psi_i|beta_j> matrix      0.00 Mb     (      22,   10)

     The potential is recalculated from file :
     ./out/Si.save/charge-density.dat

     Starting wfc are   32 randomized atomic wfcs

     Band Structure Calculation
     Davidson diagonalization with overlap

     ethr =  1.98E-11,  avg # of iterations = 16.6

     total cpu time spent up to now is       31.1 secs

     End of band structure calculation

          k = 0.5000 0.5000 0.5000 (  1622 PWs)   bands (ev):

    -3.4274  -0.7759   5.0142   5.0142   7.7082   9.5426   9.5426  13.8742
    16.7707  16.7707

          k = 0.4500 0.4500 0.4500 (  1610 PWs)   bands (ev):

    -3.5627  -0.5787   5.0322   5.0322   7.7289   9.5632   9.5632  13.9063
    16.0736  16.0736

          k = 0.4000 0.4000 0.4000 (  1616 PWs)   bands (ev):

    -3.8821  -0.0744   5.0860   5.0860   7.7905   9.6191   9.6191  13.9895
    15.1943  15.1943

          k = 0.3500 0.3500 0.3500 (  1610 PWs)   bands (ev):

    -4.2611   0.6109   5.1753   5.1753   7.8919   9.6901   9.6901  14.0481
    14.4188  14.4188

          k = 0.3000 0.3000 0.3000 (  1615 PWs)   bands (ev):

    -4.6327   1.4064   5.2989   5.2989   8.0306   9.7386   9.7386  13.7725
    13.8035  13.8035

          k = 0.2500 0.2500 0.2500 (  1618 PWs)   bands (ev):

    -4.9671   2.2763   5.4540   5.4540   8.2015   9.7118   9.7118  13.0446
    13.4048  13.4048

          k = 0.2000 0.2000 0.2000 (  1606 PWs)   bands (ev):

    -5.2503   3.1965   5.6348   5.6348   8.3950   9.5702   9.5702  12.1793
    13.2607  13.2607

          k = 0.1500 0.1500 0.1500 (  1600 PWs)   bands (ev):

    -5.4753   4.1406   5.8296   5.8296   8.5931   9.3304   9.3304  11.2851
    13.3482  13.3482

          k = 0.1000 0.1000 0.1000 (  1606 PWs)   bands (ev):

    -5.6381   5.0638   6.0170   6.0170   8.7606   9.0622   9.0622  10.4198
    13.5808  13.5808

          k = 0.0500 0.0500 0.0500 (  1630 PWs)   bands (ev):

    -5.7365   5.8554   6.1609   6.1609   8.8236   8.8505   8.8505   9.7274
    13.8311  13.8311

          k = 0.0000 0.0000 0.0000 (  1639 PWs)   bands (ev):

    -5.7694   6.2165   6.2165   6.2165   8.7693   8.7693   8.7693   9.4804
    13.9438  13.9438

          k = 0.0000 0.1000 0.0000 (  1627 PWs)   bands (ev):

    -5.7255   5.9333   6.0396   6.0396   8.6615   8.9997   8.9997   9.7531
    13.6097  13.9922

          k = 0.0000 0.2000 0.0000 (  1599 PWs)   bands (ev):

    -5.5940   5.2714   5.6367   5.6367   8.3831   9.5620   9.5620  10.3146
    12.9430  14.1374

          k = 0.0000 0.3000 0.0000 (  1607 PWs)   bands (ev):

    -5.3757   4.4572   5.1718   5.1718   8.0220  10.2895  10.2895  10.5626
    12.6483  14.3792

          k = 0.0000 0.4000 0.0000 (  1607 PWs)   bands (ev):

    -5.0717   3.5857   4.7218   4.7218   7.6512  10.0618  11.1014  11.1014
    13.2131  14.7175

          k = 0.0000 0.5000 0.0000 (  1612 PWs)   bands (ev):

    -4.6841   2.6923   4.3188   4.3188   7.3166   9.3111  11.9623  11.9623
    14.1580  15.1520

          k = 0.0000 0.6000 0.0000 (  1620 PWs)   bands (ev):

    -4.2153   1.7939   3.9779   3.9779   7.0460   8.5931  12.8553  12.8553
    15.1996  15.6821

          k = 0.0000 0.7000 0.0000 (  1632 PWs)   bands (ev):

    -3.6687   0.9024   3.7072   3.7072   6.8570   7.9793  13.7721  13.7721
    16.2531  16.3074

          k = 0.0000 0.8000 0.0000 (  1624 PWs)   bands (ev):

    -3.0488   0.0297   3.5113   3.5113   6.7619   7.4895  14.7066  14.7066
    17.0270  17.2771

          k = 0.0000 0.9000 0.0000 (  1608 PWs)   bands (ev):

    -2.3611  -0.8125   3.3928   3.3928   6.7700   7.1272  15.6373  15.6373
    17.8401  17.8512

          k = 0.0000 1.0000 0.0000 (  1604 PWs)   bands (ev):

    -1.6128  -1.6128   3.3532   3.3532   6.8894   6.8894  16.2827  16.2827
    17.1925  17.1925

          k = 0.0000 0.9750 0.0750 (  1618 PWs)   bands (ev):

    -1.7954  -1.4107   3.2790   3.2857   6.9858   7.0708  15.8794  16.0959
    16.8984  17.1282

          k = 0.0000 0.9500 0.1500 (  1622 PWs)   bands (ev):

    -1.9507  -1.2011   3.0809   3.1289   7.3351   7.4886  14.8556  15.6620
    16.4123  17.2700

          k =-0.0000 0.9250 0.2250 (  1622 PWs)   bands (ev):

    -2.0744  -1.0024   2.8189   2.9629   7.8716   8.0772  13.6870  15.0205
    16.0456  17.4221

          k =-0.0000 0.9000 0.3000 (  1623 PWs)   bands (ev):

    -2.1645  -0.8385   2.5462   2.8563   8.5374   8.7848  12.5140  14.2940
    15.7524  17.3919

          k = 0.0000 0.8750 0.3750 (  1614 PWs)   bands (ev):

    -2.2205  -0.7331   2.2970   2.8553   9.2932   9.5669  11.3923  13.5622
    15.4756  17.1319

          k = 0.0000 0.8500 0.4500 (  1612 PWs)   bands (ev):

    -2.2430  -0.6988   2.0913   2.9779  10.0497  10.1092  10.7021  12.8601
    15.1937  16.7203

          k = 0.0000 0.8250 0.5250 (  1611 PWs)   bands (ev):

    -2.2332  -0.7296   1.9417   3.2073   9.2055  10.9355  11.4857  12.2329
    14.8997  16.2183

          k =-0.0000 0.8000 0.6000 (  1614 PWs)   bands (ev):

    -2.1927  -0.8061   1.8559   3.4900   8.3493  11.3022  12.1419  12.4611
    14.5959  15.6713

          k =-0.0000 0.7750 0.6750 (  1621 PWs)   bands (ev):

    -2.1230  -0.9082   1.8383   3.7290   7.6953  10.8348  12.9411  13.4818
    14.2991  15.1176

          k = 0.0000 0.7500 0.7500 (  1624 PWs)   bands (ev):

    -2.0251  -1.0223   1.8911   3.7821   7.3845  10.3157  13.6675  14.1868
    14.3847  14.7186

          k = 0.0000 0.7250 0.7750 (  1616 PWs)   bands (ev):

    -2.0193  -1.0245   1.8958   3.7452   7.4391  10.3196  13.5179  14.1198
    14.3356  14.9845

          k = 0.0000 0.7000 0.8000 (  1621 PWs)   bands (ev):

    -2.0018  -1.0317   1.9098   3.6416   7.5959  10.3312  13.2442  13.7411
    14.6069  15.3652

          k = 0.0000 0.6750 0.8250 (  1620 PWs)   bands (ev):

    -1.9728  -1.0444   1.9330   3.4886   7.8383  10.3501  12.9478  13.3574
    14.8995  15.7490

          k = 0.0000 0.6500 0.8500 (  1616 PWs)   bands (ev):

    -1.9321  -1.0642   1.9655   3.3060   8.1474  10.3759  12.6481  12.9779
    15.1942  16.1202

          k = 0.0000 0.6250 0.8750 (  1616 PWs)   bands (ev):

    -1.8799  -1.0928   2.0070   3.1115   8.5069  10.4074  12.3519  12.6060
    15.4848  16.4639

          k = 0.0000 0.6000 0.9000 (  1613 PWs)   bands (ev):

    -1.8162  -1.1324   2.0574   2.9188   8.9039  10.4427  12.0639  12.2440
    15.7681  16.7558

          k = 0.0000 0.5750 0.9250 (  1615 PWs)   bands (ev):

    -1.7409  -1.1855   2.1164   2.7386   9.3278  10.4781  11.7893  11.8953
    16.0414  16.9570

          k = 0.0000 0.5500 0.9500 (  1615 PWs)   bands (ev):

    -1.6542  -1.2545   2.1839   2.5789   9.7659  10.5061  11.5372  11.5671
    16.3020  17.0230

          k = 0.0000 0.5250 0.9750 (  1615 PWs)   bands (ev):

    -1.5561  -1.3412   2.2595   2.4457  10.1890  10.5101  11.2851  11.3249
    16.5466  16.9466

          k = 0.0000 0.5000 1.0000 (  1628 PWs)   bands (ev):

    -1.4467  -1.4467   2.3428   2.3428  10.4606  10.4606  11.1829  11.1829
    16.7698  16.7698

          k = 0.0000 0.4500 0.9000 (  1616 PWs)   bands (ev):

    -1.9778  -0.9434   2.1437   2.7366  10.1020  10.1589  10.8492  12.3937
    15.7471  17.0977

          k =-0.0000 0.4000 0.8000 (  1616 PWs)   bands (ev):

    -2.6069  -0.3543   2.2157   3.2083   9.5854   9.9587  10.6157  13.9701
    14.6518  16.3671

          k =-0.0000 0.3500 0.7000 (  1618 PWs)   bands (ev):

    -3.2597   0.3200   2.4975   3.7308   9.1619   9.8887  10.4597  13.5998
    15.4605  15.5804

          k =-0.0000 0.3000 0.6000 (  1609 PWs)   bands (ev):

    -3.8805   1.0782   2.9351   4.2685   8.8461   9.9700  10.3527  12.6143
    14.6382  16.9230

          k = 0.0000 0.2500 0.5000 (  1610 PWs)   bands (ev):

    -4.4357   1.9180   3.4888   4.7825   8.6405  10.0772  10.3881  11.7028
    13.9637  16.3960

          k = 0.0000 0.2000 0.4000 (  1613 PWs)   bands (ev):

    -4.9059   2.8338   4.1239   5.2411   8.5430   9.9132  10.7896  10.8697
    13.4084  15.0040

          k = 0.0000 0.1500 0.3000 (  1607 PWs)   bands (ev):

    -5.2797   3.8126   4.8000   5.6275   8.5444   9.6279  10.1207  11.1743
    12.8599  14.1821

          k =-0.0000 0.1000 0.2000 (  1600 PWs)   bands (ev):

    -5.5506   4.8208   5.4578   5.9334   8.6211   9.3018   9.4713  10.7334
    12.9687  13.9520

          k =-0.0000 0.0500 0.1000 (  1623 PWs)   bands (ev):

    -5.7145   5.7511   5.9923   6.1407   8.7215   8.9743   8.9842   9.8594
    13.6013  13.9341

          k = 0.0000 0.0000 0.0000 (  1639 PWs)   bands (ev):

    -5.7694   6.2165   6.2165   6.2165   8.7693   8.7693   8.7693   9.4804
    13.9438  13.9438

     Writing output data file Si.save

     init_run     :      0.19s CPU      0.20s WALL (       1 calls)
     electrons    :     27.55s CPU     29.10s WALL (       1 calls)

     Called by init_run:
     wfcinit      :      0.00s CPU      0.00s WALL (       1 calls)
     potinit      :      0.06s CPU      0.06s WALL (       1 calls)

     Called by electrons:
     c_bands      :     27.55s CPU     29.10s WALL (       1 calls)
     v_of_rho     :      0.05s CPU      0.05s WALL (       1 calls)

     Called by c_bands:
     init_us_2    :      0.11s CPU      0.11s WALL (      51 calls)
     cegterg      :     21.26s CPU     22.43s WALL (      55 calls)

     Called by *egterg:
     h_psi        :     22.95s CPU     24.26s WALL (     951 calls)
     g_psi        :      0.06s CPU      0.06s WALL (     845 calls)
     cdiaghg      :      0.45s CPU      0.48s WALL (     896 calls)

     Called by h_psi:
     add_vuspsi   :      0.66s CPU      0.72s WALL (     951 calls)

     General routines
     calbec       :      0.75s CPU      0.79s WALL (     951 calls)
     fft          :      0.02s CPU      0.02s WALL (      10 calls)
     fftw         :     20.33s CPU     21.46s WALL (   14662 calls)
     davcio       :      0.00s CPU      0.00s WALL (      51 calls)

     Parallel routines
     fft_scatter  :      0.51s CPU      0.54s WALL (   14672 calls)

     PWSCF        :    29.35s CPU        31.25s WALL


   This run was terminated on:  16:59:50  13Feb2023            

=------------------------------------------------------------------------------=
   JOB DONE.
=------------------------------------------------------------------------------=
