
     Program PWSCF v.5.1 starts on 13Feb2023 at 16:58:34 

     This program is part of the open-source Quantum ESPRESSO suite
     for quantum simulation of materials; please cite
         "P. Giannozzi et al., J. Phys.:Condens. Matter 21 395502 (2009);
          URL http://www.quantum-espresso.org", 
     in publications or presentations arising from this work. More details at
     http://www.quantum-espresso.org/quote

     Parallel version (MPI), running on     1 processors
     Waiting for input...
     Reading input from standard input

     Current dimensions of program PWSCF are:
     Max number of different atomic species (ntypx) = 10
     Max number of k-points (npk) =  40000
     Max angular momentum in pseudopotentials (lmaxx) =  3

     Atomic positions and unit cell read from directory:
     ./out/Si.save/

               file Si.pbe-mt_fhi.UPF: wavefunction(s)  4f renormalized

     Subspace diagonalization in iterative solution of the eigenvalue problem:
     a serial algorithm will be used


     G-vector sticks info
     --------------------
     sticks:   dense  smooth     PW     G-vecs:    dense   smooth      PW
     Sum         733     733    223                12939    12939    2229



     bravais-lattice index     =            2
     lattice parameter (alat)  =      10.2623  a.u.
     unit-cell volume          =     270.1967 (a.u.)^3
     number of atoms/cell      =            2
     number of atomic types    =            1
     number of electrons       =         8.10
     number of Kohn-Sham states=           10
     kinetic-energy cutoff     =      50.0000  Ry
     charge density cutoff     =     200.0000  Ry
     Exchange-correlation      = PBE ( 1  4  3  4 0)

     celldm(1)=  10.262347  celldm(2)=   0.000000  celldm(3)=   0.000000
     celldm(4)=   0.000000  celldm(5)=   0.000000  celldm(6)=   0.000000

     crystal axes: (cart. coord. in units of alat)
               a(1) = (  -0.500000   0.000000   0.500000 )  
               a(2) = (   0.000000   0.500000   0.500000 )  
               a(3) = (  -0.500000   0.500000   0.000000 )  

     reciprocal axes: (cart. coord. in units 2 pi/alat)
               b(1) = ( -1.000000 -1.000000  1.000000 )  
               b(2) = (  1.000000  1.000000  1.000000 )  
               b(3) = ( -1.000000  1.000000 -1.000000 )  


     PseudoPot. # 1 for Si read from file:
     /home/acedemo/psudo/Si.pbe-mt_fhi.UPF
     MD5 check sum: 259057c2adf9952f9ced37ae3d9e311d
     Pseudo is Norm-conserving, Zval =  4.0
     Generated using FHI98PP, converted with fhi2upf.x v.5.0.2
     Using radial grid of  495 points,  3 beta functions with: 
                l(1) =   0
                l(2) =   1
                l(3) =   3

     atomic species   valence    mass     pseudopotential
        Si             4.00    28.08550     Si( 1.00)

     48 Sym. Ops., with inversion, found (24 have fractional translation)



   Cartesian axes

     site n.     atom                  positions (alat units)
         1           Si  tau(   1) = (   0.0000000   0.0000000   0.0000000  )
         2           Si  tau(   2) = (   0.2500000   0.2500000   0.2500000  )

     number of k points=    72 (tetrahedron method)
                       cart. coord. in units 2pi/alat
        k(    1) = (   0.0000000   0.0000000   0.0000000), wk =   0.0011574
        k(    2) = (  -0.0833333   0.0833333  -0.0833333), wk =   0.0092593
        k(    3) = (  -0.1666667   0.1666667  -0.1666667), wk =   0.0092593
        k(    4) = (  -0.2500000   0.2500000  -0.2500000), wk =   0.0092593
        k(    5) = (  -0.3333333   0.3333333  -0.3333333), wk =   0.0092593
        k(    6) = (  -0.4166667   0.4166667  -0.4166667), wk =   0.0092593
        k(    7) = (   0.5000000  -0.5000000   0.5000000), wk =   0.0046296
        k(    8) = (   0.0000000   0.1666667   0.0000000), wk =   0.0069444
        k(    9) = (  -0.0833333   0.2500000  -0.0833333), wk =   0.0277778
        k(   10) = (  -0.1666667   0.3333333  -0.1666667), wk =   0.0277778
        k(   11) = (  -0.2500000   0.4166667  -0.2500000), wk =   0.0277778
        k(   12) = (  -0.3333333   0.5000000  -0.3333333), wk =   0.0277778
        k(   13) = (   0.5833333  -0.4166667   0.5833333), wk =   0.0277778
        k(   14) = (   0.5000000  -0.3333333   0.5000000), wk =   0.0277778
        k(   15) = (   0.4166667  -0.2500000   0.4166667), wk =   0.0277778
        k(   16) = (   0.3333333  -0.1666667   0.3333333), wk =   0.0277778
        k(   17) = (   0.2500000  -0.0833333   0.2500000), wk =   0.0277778
        k(   18) = (   0.1666667  -0.0000000   0.1666667), wk =   0.0138889
        k(   19) = (   0.0000000   0.3333333   0.0000000), wk =   0.0069444
        k(   20) = (  -0.0833333   0.4166667  -0.0833333), wk =   0.0277778
        k(   21) = (  -0.1666667   0.5000000  -0.1666667), wk =   0.0277778
        k(   22) = (  -0.2500000   0.5833333  -0.2500000), wk =   0.0277778
        k(   23) = (   0.6666667  -0.3333333   0.6666667), wk =   0.0277778
        k(   24) = (   0.5833333  -0.2500000   0.5833333), wk =   0.0277778
        k(   25) = (   0.5000000  -0.1666667   0.5000000), wk =   0.0277778
        k(   26) = (   0.4166667  -0.0833333   0.4166667), wk =   0.0277778
        k(   27) = (   0.3333333   0.0000000   0.3333333), wk =   0.0138889
        k(   28) = (   0.0000000   0.5000000   0.0000000), wk =   0.0069444
        k(   29) = (  -0.0833333   0.5833333  -0.0833333), wk =   0.0277778
        k(   30) = (  -0.1666667   0.6666667  -0.1666667), wk =   0.0277778
        k(   31) = (   0.7500000  -0.2500000   0.7500000), wk =   0.0277778
        k(   32) = (   0.6666667  -0.1666667   0.6666667), wk =   0.0277778
        k(   33) = (   0.5833333  -0.0833333   0.5833333), wk =   0.0277778
        k(   34) = (   0.5000000   0.0000000   0.5000000), wk =   0.0138889
        k(   35) = (   0.0000000   0.6666667   0.0000000), wk =   0.0069444
        k(   36) = (  -0.0833333   0.7500000  -0.0833333), wk =   0.0277778
        k(   37) = (   0.8333333  -0.1666667   0.8333333), wk =   0.0277778
        k(   38) = (   0.7500000  -0.0833333   0.7500000), wk =   0.0277778
        k(   39) = (   0.6666667   0.0000000   0.6666667), wk =   0.0138889
        k(   40) = (   0.0000000   0.8333333   0.0000000), wk =   0.0069444
        k(   41) = (   0.9166667  -0.0833333   0.9166667), wk =   0.0277778
        k(   42) = (   0.8333333   0.0000000   0.8333333), wk =   0.0138889
        k(   43) = (   0.0000000  -1.0000000   0.0000000), wk =   0.0034722
        k(   44) = (  -0.1666667   0.3333333   0.0000000), wk =   0.0277778
        k(   45) = (  -0.2500000   0.4166667  -0.0833333), wk =   0.0555556
        k(   46) = (  -0.3333333   0.5000000  -0.1666667), wk =   0.0555556
        k(   47) = (   0.5833333  -0.4166667   0.7500000), wk =   0.0555556
        k(   48) = (   0.5000000  -0.3333333   0.6666667), wk =   0.0277778
        k(   49) = (  -0.1666667   0.5000000   0.0000000), wk =   0.0277778
        k(   50) = (  -0.2500000   0.5833333  -0.0833333), wk =   0.0555556
        k(   51) = (   0.6666667  -0.3333333   0.8333333), wk =   0.0555556
        k(   52) = (   0.5833333  -0.2500000   0.7500000), wk =   0.0555556
        k(   53) = (   0.5000000  -0.1666667   0.6666667), wk =   0.0555556
        k(   54) = (   0.4166667  -0.0833333   0.5833333), wk =   0.0555556
        k(   55) = (   0.3333333   0.0000000   0.5000000), wk =   0.0277778
        k(   56) = (  -0.1666667   0.6666667  -0.0000000), wk =   0.0277778
        k(   57) = (   0.7500000  -0.2500000   0.9166667), wk =   0.0555556
        k(   58) = (   0.6666667  -0.1666667   0.8333333), wk =   0.0555556
        k(   59) = (   0.5833333  -0.0833333   0.7500000), wk =   0.0555556
        k(   60) = (   0.5000000   0.0000000   0.6666667), wk =   0.0277778
        k(   61) = (   0.8333333  -0.1666667   1.0000000), wk =   0.0277778
        k(   62) = (   0.7500000  -0.0833333   0.9166667), wk =   0.0555556
        k(   63) = (   0.6666667   0.0000000   0.8333333), wk =   0.0277778
        k(   64) = (  -0.1666667  -1.0000000   0.0000000), wk =   0.0138889
        k(   65) = (   0.6666667  -0.3333333   1.0000000), wk =   0.0277778
        k(   66) = (   0.5833333  -0.2500000   0.9166667), wk =   0.0555556
        k(   67) = (   0.5000000  -0.1666667   0.8333333), wk =   0.0277778
        k(   68) = (   0.6666667  -0.1666667   1.0000000), wk =   0.0277778
        k(   69) = (   0.5833333  -0.0833333   0.9166667), wk =   0.0555556
        k(   70) = (   0.5000000   0.0000000   0.8333333), wk =   0.0277778
        k(   71) = (  -0.3333333  -1.0000000   0.0000000), wk =   0.0138889
        k(   72) = (  -0.5000000  -1.0000000   0.0000000), wk =   0.0069444

     Dense  grid:    12939 G-vectors     FFT dimensions: (  36,  36,  36)

     Largest allocated arrays     est. size (Mb)     dimensions
        Kohn-Sham Wavefunctions         0.25 Mb     (    1639,   10)
        NL pseudopotentials             0.55 Mb     (    1639,   22)
        Each V/rho on FFT grid          0.71 Mb     (   46656)
        Each G-vector array             0.10 Mb     (   12939)
        G-vector shells                 0.00 Mb     (     180)
     Largest temporary arrays     est. size (Mb)     dimensions
        Auxiliary wavefunctions         1.00 Mb     (    1639,   40)
        Each subspace H/S matrix        0.02 Mb     (      40,   40)
        Each <psi_i|beta_j> matrix      0.00 Mb     (      22,   10)

     The potential is recalculated from file :
     ./out/Si.save/charge-density.dat

     Starting wfc are   32 randomized atomic wfcs

     Band Structure Calculation
     Davidson diagonalization with overlap

     ethr =  1.98E-11,  avg # of iterations = 18.4

     total cpu time spent up to now is       37.3 secs

     End of band structure calculation

          k = 0.0000 0.0000 0.0000 (  1639 PWs)   bands (ev):

    -5.7694   6.2165   6.2165   6.2165   8.7693   8.7693   8.7693   9.4804
    13.9438  13.9438

          k =-0.0833 0.0833-0.0833 (  1612 PWs)   bands (ev):

    -5.6781   5.3516   6.0720   6.0720   8.7986   8.9813   8.9813  10.1573
    13.6697  13.6697

          k =-0.1667 0.1667-0.1667 (  1591 PWs)   bands (ev):

    -5.4071   3.8253   5.7642   5.7642   8.5282   9.4176   9.4176  11.5834
    13.2976  13.2976

          k =-0.2500 0.2500-0.2500 (  1618 PWs)   bands (ev):

    -4.9671   2.2763   5.4540   5.4540   8.2015   9.7118   9.7118  13.0446
    13.4048  13.4048

          k =-0.3333 0.3333-0.3333 (  1616 PWs)   bands (ev):

    -4.3877   0.8660   5.2128   5.2128   7.9341   9.7112   9.7112  14.0171
    14.1932  14.1932

          k =-0.4167 0.4167-0.4167 (  1616 PWs)   bands (ev):

    -3.7640  -0.2677   5.0641   5.0641   7.7654   9.5975   9.5975  13.9584
    15.4792  15.4792

          k = 0.5000-0.5000 0.5000 (  1622 PWs)   bands (ev):

    -3.4274  -0.7759   5.0142   5.0142   7.7082   9.5426   9.5426  13.8742
    16.7707  16.7707

          k = 0.0000 0.1667 0.0000 (  1615 PWs)   bands (ev):

    -5.6475   5.5169   5.7840   5.7840   8.4895   9.3500   9.3500  10.1253
    13.1648  14.0782

          k =-0.0833 0.2500-0.0833 (  1599 PWs)   bands (ev):

    -5.4359   4.2802   5.4186   5.6092   8.5084   9.4140   9.8887  11.0504
    12.8083  14.0163

          k =-0.1667 0.3333-0.1667 (  1610 PWs)   bands (ev):

    -5.0507   2.7755   5.1046   5.2840   8.6249   9.4076  10.2735  11.5780
    13.5417  14.0708

          k =-0.2500 0.4167-0.2500 (  1606 PWs)   bands (ev):

    -4.5127   1.3360   4.8943   4.9295   8.4734   9.4949  10.2951  12.1537
    14.7265  14.8087

          k =-0.3333 0.5000-0.3333 (  1616 PWs)   bands (ev):

    -3.8842   0.1020   4.6323   4.8046   8.3054   9.4616  10.0981  13.2009
    14.8830  15.9142

          k = 0.5833-0.4167 0.5833 (  1615 PWs)   bands (ev):

    -3.3902  -0.6716   4.4266   4.8360   8.2242   9.4629   9.8973  14.0829
    15.2150  16.7237

          k = 0.5000-0.3333 0.5000 (  1616 PWs)   bands (ev):

    -3.5120  -0.4928   4.3307   4.9799   8.2507   9.5800   9.7861  14.1865
    15.1616  15.6512

          k = 0.4167-0.2500 0.4167 (  1611 PWs)   bands (ev):

    -4.0972   0.4835   4.3577   5.2205   8.3837   9.7548   9.7910  13.6516
    13.7803  15.2619

          k = 0.3333-0.1667 0.3333 (  1605 PWs)   bands (ev):

    -4.7077   1.8015   4.5176   5.5317   8.6106   9.6754   9.9457  12.6796
    12.8685  15.2004

          k = 0.2500-0.0833 0.2500 (  1600 PWs)   bands (ev):

    -5.1983   3.2633   4.8225   5.8623   8.8967   9.3765   9.7317  11.8909
    12.6503  14.1118

          k = 0.1667-0.0000 0.1667 (  1592 PWs)   bands (ev):

    -5.5267   4.6191   5.3472   6.0984   9.0188   9.1181   9.1679  10.9655
    13.0355  13.7794

          k = 0.0000 0.3333 0.0000 (  1607 PWs)   bands (ev):

    -5.2838   4.1706   5.0180   5.0180   7.8967  10.4607  10.5530  10.5530
    12.7578  14.4813

          k =-0.0833 0.4167-0.0833 (  1616 PWs)   bands (ev):

    -4.9556   3.0824   4.6683   4.6825   7.9155  10.0700  10.8823  11.1151
    13.7249  14.7059

          k =-0.1667 0.5000-0.1667 (  1611 PWs)   bands (ev):

    -4.4658   1.7691   4.2131   4.4634   8.1539  10.2432  10.7156  11.2812
    15.2541  15.2848

          k =-0.2500 0.5833-0.2500 (  1610 PWs)   bands (ev):

    -3.8554   0.5308   3.7721   4.3794   8.1956  10.4417  11.0997  11.2359
    16.0618  16.4002

          k = 0.6667-0.3333 0.6667 (  1607 PWs)   bands (ev):

    -3.2686  -0.4074   3.4263   4.4336   8.2253  10.2981  10.8261  12.6049
    15.5884  16.6858

          k = 0.5833-0.2500 0.5833 (  1602 PWs)   bands (ev):

    -3.1533  -0.5682   3.2114   4.6185   8.3694  10.2506  10.5993  14.1576
    14.7226  14.9907

          k = 0.5000-0.1667 0.5000 (  1610 PWs)   bands (ev):

    -3.6557   0.1944   3.1541   4.9149   8.6344  10.3067  10.4337  13.4560
    13.5346  15.5777

          k = 0.4167-0.0833 0.4167 (  1613 PWs)   bands (ev):

    -4.2829   1.3453   3.2983   5.2847   8.9667  10.2068  10.3659  12.2944
    12.5602  16.4404

          k = 0.3333 0.0000 0.3333 (  1604 PWs)   bands (ev):

    -4.8169   2.4896   3.7902   5.6503   9.2237   9.7643  10.0390  11.8269
    12.3112  15.5391

          k = 0.0000 0.5000 0.0000 (  1612 PWs)   bands (ev):

    -4.6841   2.6923   4.3188   4.3188   7.3166   9.3111  11.9623  11.9623
    14.1580  15.1520

          k =-0.0833 0.5833-0.0833 (  1617 PWs)   bands (ev):

    -4.2461   1.7815   3.8499   4.0715   7.4004   8.9586  12.2373  12.4430
    15.4463  15.7160

          k =-0.1667 0.6667-0.1667 (  1620 PWs)   bands (ev):

    -3.6686   0.7503   3.2137   3.9641   7.6163   9.4344  12.0920  12.4004
    16.8059  17.0982

          k = 0.7500-0.2500 0.7500 (  1617 PWs)   bands (ev):

    -3.0416  -0.1792   2.6645   4.0031   7.7025  10.6351  11.9185  12.1228
    16.3748  16.7447

          k = 0.6667-0.1667 0.6667 (  1607 PWs)   bands (ev):

    -2.7154  -0.5963   2.2998   4.1840   7.8816  11.6371  11.8257  12.3460
    14.9264  14.9790

          k = 0.5833-0.0833 0.5833 (  1611 PWs)   bands (ev):

    -3.0935  -0.0998   2.1792   4.4901   8.2066  11.5260  11.6178  13.3439
    13.5008  14.1085

          k = 0.5000 0.0000 0.5000 (  1604 PWs)   bands (ev):

    -3.7185   0.7257   2.4438   4.8841   8.6337  10.9943  11.3187  12.3019
    12.6523  15.8124

          k = 0.0000 0.6667 0.0000 (  1624 PWs)   bands (ev):

    -3.8593   1.1981   3.7893   3.7893   6.9102   8.1706  13.4642  13.4642
    15.9035  16.0884

          k =-0.0833 0.7500-0.0833 (  1618 PWs)   bands (ev):

    -3.3228   0.4113   3.2993   3.6462   7.0724   8.0423  13.7733  13.8332
    16.9982  17.2032

          k = 0.8333-0.1667 0.8333 (  1619 PWs)   bands (ev):

    -2.6913  -0.3587   2.5655   3.6525   7.2442   8.9025  13.6517  13.6527
    16.7883  16.9066

          k = 0.7500-0.0833 0.7500 (  1620 PWs)   bands (ev):

    -2.2194  -0.8520   1.9830   3.8070   7.4208  10.3509  13.3003  13.4806
    15.0837  15.1415

          k = 0.6667 0.0000 0.6667 (  1612 PWs)   bands (ev):

    -2.4929  -0.5655   1.7798   4.0968   7.7486  11.9905  12.6786  13.2500
    13.5837  13.8751

          k = 0.0000 0.8333 0.0000 (  1628 PWs)   bands (ev):

    -2.8268  -0.2550   3.4631   3.4631   6.7527   7.3546  15.0197  15.0197
    17.2877  17.6064

          k = 0.9167-0.0833 0.9167 (  1622 PWs)   bands (ev):

    -2.2112  -0.9443   3.0271   3.4294   6.9531   7.5242  15.2650  15.3485
    17.0417  17.1129

          k = 0.8333 0.0000 0.8333 (  1614 PWs)   bands (ev):

    -1.7526  -1.3499   2.3506   3.5470   7.1127   8.7290  14.7183  15.2119
    15.3020  15.6603

          k = 0.0000-1.0000 0.0000 (  1604 PWs)   bands (ev):

    -1.6128  -1.6128   3.3532   3.3532   6.8894   6.8894  16.2827  16.2827
    17.1925  17.1925

          k =-0.1667 0.3333 0.0000 (  1603 PWs)   bands (ev):

    -5.1663   3.4807   4.5731   5.5072   8.5340   9.7309  10.3605  11.0899
    13.0276  14.3735

          k =-0.2500 0.4167-0.0833 (  1607 PWs)   bands (ev):

    -4.7284   2.2373   4.0386   5.2310   8.8113   9.7015  10.7647  11.0800
    13.5061  15.4702

          k =-0.3333 0.5000-0.1667 (  1604 PWs)   bands (ev):

    -4.1509   0.9320   3.7687   4.9022   8.8451   9.5833  10.8208  11.7298
    14.3838  16.0130

          k = 0.5833-0.4167 0.7500 (  1612 PWs)   bands (ev):

    -3.5261  -0.1619   3.6414   4.6546   8.7856   9.3947  10.7384  12.9451
    15.2429  15.8159

          k = 0.5000-0.3333 0.6667 (  1602 PWs)   bands (ev):

    -3.1852  -0.6629   3.6059   4.5625   8.7630   9.3100  10.6926  14.2481
    14.4478  16.0867

          k =-0.1667 0.5000 0.0000 (  1617 PWs)   bands (ev):

    -4.5732   2.2882   3.8748   4.5827   7.9809   9.7059  11.0133  11.8403
    14.3288  15.6167

          k =-0.2500 0.5833-0.0833 (  1611 PWs)   bands (ev):

    -4.0387   1.2358   3.3349   4.2924   8.3123   9.9293  10.7511  12.2223
    15.0390  17.1312

          k = 0.6667-0.3333 0.8333 (  1617 PWs)   bands (ev):

    -3.4104   0.1776   2.9774   4.0805   8.4305  10.3995  10.9939  12.2000
    16.0275  16.2517

          k = 0.5833-0.2500 0.7500 (  1607 PWs)   bands (ev):

    -2.9104  -0.5326   2.7308   4.0623   8.5576  10.1246  12.0902  12.4627
    14.4606  16.7414

          k = 0.5000-0.1667 0.6667 (  1605 PWs)   bands (ev):

    -3.0470  -0.3444   2.6116   4.2359   8.8073   9.9362  12.0053  12.8499
    14.1670  15.4971

          k = 0.4167-0.0833 0.5833 (  1610 PWs)   bands (ev):

    -3.6404   0.5368   2.6849   4.5546   9.1669   9.7977  11.4731  11.9632
    14.1933  15.8425

          k = 0.3333 0.0000 0.5000 (  1606 PWs)   bands (ev):

    -4.2455   1.5188   3.1010   4.9386   9.4077   9.5464  10.8528  11.5356
    13.4779  16.9768

          k =-0.1667 0.6667-0.0000 (  1626 PWs)   bands (ev):

    -3.7602   1.0224   3.3633   3.7942   7.5797   8.6590  12.2534  13.4120
    15.7889  17.2097

          k = 0.7500-0.2500 0.9167 (  1621 PWs)   bands (ev):

    -3.1522   0.1855   2.7714   3.5755   7.9122   9.1932  11.9495  13.7748
    16.4151  16.7390

          k = 0.6667-0.1667 0.8333 (  1616 PWs)   bands (ev):

    -2.5598  -0.5320   2.2473   3.5835   8.0648  10.4901  11.6529  13.7015
    14.6349  17.0870

          k = 0.5833-0.0833 0.7500 (  1614 PWs)   bands (ev):

    -2.4878  -0.6037   1.9567   3.7832   8.3218  11.2478  12.2373  12.9158
    13.6002  15.5466

          k = 0.5000 0.0000 0.6667 (  1621 PWs)   bands (ev):

    -3.0281  -0.0114   2.0436   4.1302   8.7146  10.8384  11.6832  13.0347
    14.1321  14.4111

          k = 0.8333-0.1667 1.0000 (  1617 PWs)   bands (ev):

    -2.7488  -0.2913   3.0785   3.2762   7.4064   7.9152  13.6266  15.0143
    16.7788  17.2835

          k = 0.7500-0.0833 0.9167 (  1620 PWs)   bands (ev):

    -2.1173  -0.9355   2.4446   3.2320   7.6971   8.8264  13.3046  14.7819
    15.4669  17.1578

          k = 0.6667 0.0000 0.8333 (  1620 PWs)   bands (ev):

    -1.9605  -1.0501   1.9428   3.4301   7.9348  10.3580  12.8478  13.2302
    14.9979  15.8748

          k =-0.1667-1.0000 0.0000 (  1622 PWs)   bands (ev):

    -1.5742  -1.5742   3.0431   3.0431   7.5065   7.5065  15.0931  15.0931
    16.7947  16.7947

          k = 0.6667-0.3333 1.0000 (  1610 PWs)   bands (ev):

    -3.4723   0.5635   2.6282   3.9103   9.0444   9.8990  10.4196  13.2634
    15.1724  16.0866

          k = 0.5833-0.2500 0.9167 (  1611 PWs)   bands (ev):

    -2.8453  -0.2085   2.2797   3.5710   9.4160   9.9548  10.9379  13.6873
    14.2788  16.1460

          k = 0.5000-0.1667 0.8333 (  1610 PWs)   bands (ev):

    -2.4827  -0.6400   2.1866   3.4407   9.5455   9.7424  12.2867  12.7006
    13.7458  17.2918

          k = 0.6667-0.1667 1.0000 (  1618 PWs)   bands (ev):

    -2.5335  -0.4354   2.4284   3.0503   8.8709   9.2702  11.5690  14.4936
    15.0454  16.9073

          k = 0.5833-0.0833 0.9167 (  1615 PWs)   bands (ev):

    -2.0077  -0.9432   2.1105   2.8951   9.2106  10.4757  11.2926  12.6786
    15.4170  17.3071

          k = 0.5000 0.0000 0.8333 (  1612 PWs)   bands (ev):

    -2.2399  -0.7132   1.9848   3.1215   9.5129  10.6662  11.1807  12.4268
    14.9990  16.3927

          k =-0.3333-1.0000 0.0000 (  1618 PWs)   bands (ev):

    -1.4914  -1.4914   2.5525   2.5525   8.9351   8.9351  12.9469  12.9469
    16.7652  16.7652

          k =-0.5000-1.0000 0.0000 (  1628 PWs)   bands (ev):

    -1.4467  -1.4467   2.3428   2.3428  10.4606  10.4606  11.1829  11.1829
    16.7698  16.7698

     the Fermi energy is     7.3438 ev

     Writing output data file Si.save

     init_run     :      0.20s CPU      0.21s WALL (       1 calls)
     electrons    :     35.51s CPU     36.60s WALL (       1 calls)

     Called by init_run:
     wfcinit      :      0.00s CPU      0.00s WALL (       1 calls)
     potinit      :      0.05s CPU      0.06s WALL (       1 calls)

     Called by electrons:
     c_bands      :     35.41s CPU     36.50s WALL (       1 calls)
     v_of_rho     :      0.04s CPU      0.05s WALL (       1 calls)

     Called by c_bands:
     init_us_2    :      0.11s CPU      0.11s WALL (      72 calls)
     cegterg      :     27.54s CPU     28.30s WALL (      87 calls)

     Called by *egterg:
     h_psi        :     29.70s CPU     30.62s WALL (    1481 calls)
     g_psi        :      0.07s CPU      0.07s WALL (    1322 calls)
     cdiaghg      :      0.59s CPU      0.61s WALL (    1394 calls)

     Called by h_psi:
     add_vuspsi   :      0.79s CPU      0.82s WALL (    1481 calls)

     General routines
     calbec       :      0.92s CPU      0.95s WALL (    1481 calls)
     fft          :      0.02s CPU      0.02s WALL (      10 calls)
     fftw         :     26.52s CPU     27.34s WALL (   21532 calls)
     davcio       :      0.00s CPU      0.01s WALL (      72 calls)

     Parallel routines
     fft_scatter  :      0.64s CPU      0.64s WALL (   21542 calls)

     PWSCF        :    37.69s CPU        38.86s WALL


   This run was terminated on:  16:59:13  13Feb2023            

=------------------------------------------------------------------------------=
   JOB DONE.
=------------------------------------------------------------------------------=
