
     Program PWSCF v.5.1 starts on 13Feb2023 at 16:58: 5 

     This program is part of the open-source Quantum ESPRESSO suite
     for quantum simulation of materials; please cite
         "P. Giannozzi et al., J. Phys.:Condens. Matter 21 395502 (2009);
          URL http://www.quantum-espresso.org", 
     in publications or presentations arising from this work. More details at
     http://www.quantum-espresso.org/quote

     Parallel version (MPI), running on     1 processors
     Waiting for input...
     Reading input from standard input

     Current dimensions of program PWSCF are:
     Max number of different atomic species (ntypx) = 10
     Max number of k-points (npk) =  40000
     Max angular momentum in pseudopotentials (lmaxx) =  3
               file Si.pbe-mt_fhi.UPF: wavefunction(s)  4f renormalized

     Subspace diagonalization in iterative solution of the eigenvalue problem:
     a serial algorithm will be used


     G-vector sticks info
     --------------------
     sticks:   dense  smooth     PW     G-vecs:    dense   smooth      PW
     Sum         733     733    211                12939    12939    2109



     bravais-lattice index     =            2
     lattice parameter (alat)  =      10.2623  a.u.
     unit-cell volume          =     270.1967 (a.u.)^3
     number of atoms/cell      =            2
     number of atomic types    =            1
     number of electrons       =         8.10
     number of Kohn-Sham states=           10
     kinetic-energy cutoff     =      50.0000  Ry
     charge density cutoff     =     200.0000  Ry
     convergence threshold     =      1.6E-09
     mixing beta               =       0.3000
     number of iterations used =            8  plain     mixing
     Exchange-correlation      = PBE ( 1  4  3  4 0)

     celldm(1)=  10.262347  celldm(2)=   0.000000  celldm(3)=   0.000000
     celldm(4)=   0.000000  celldm(5)=   0.000000  celldm(6)=   0.000000

     crystal axes: (cart. coord. in units of alat)
               a(1) = (  -0.500000   0.000000   0.500000 )  
               a(2) = (   0.000000   0.500000   0.500000 )  
               a(3) = (  -0.500000   0.500000   0.000000 )  

     reciprocal axes: (cart. coord. in units 2 pi/alat)
               b(1) = ( -1.000000 -1.000000  1.000000 )  
               b(2) = (  1.000000  1.000000  1.000000 )  
               b(3) = ( -1.000000  1.000000 -1.000000 )  


     PseudoPot. # 1 for Si read from file:
     /home/acedemo/psudo/Si.pbe-mt_fhi.UPF
     MD5 check sum: 259057c2adf9952f9ced37ae3d9e311d
     Pseudo is Norm-conserving, Zval =  4.0
     Generated using FHI98PP, converted with fhi2upf.x v.5.0.2
     Using radial grid of  495 points,  3 beta functions with: 
                l(1) =   0
                l(2) =   1
                l(3) =   3

     atomic species   valence    mass     pseudopotential
        Si             4.00    28.08550     Si( 1.00)

     48 Sym. Ops., with inversion, found (24 have fractional translation)



   Cartesian axes

     site n.     atom                  positions (alat units)
         1           Si  tau(   1) = (   0.0000000   0.0000000   0.0000000  )
         2           Si  tau(   2) = (   0.2500000   0.2500000   0.2500000  )

     number of k points=    10  Marzari-Vanderbilt smearing, width (Ry)=  0.0500
                       cart. coord. in units 2pi/alat
        k(    1) = (   0.0000000   0.0000000   0.0000000), wk =   0.0160000
        k(    2) = (  -0.2000000   0.2000000  -0.2000000), wk =   0.1280000
        k(    3) = (  -0.4000000   0.4000000  -0.4000000), wk =   0.1280000
        k(    4) = (   0.0000000   0.4000000   0.0000000), wk =   0.0960000
        k(    5) = (  -0.2000000   0.6000000  -0.2000000), wk =   0.3840000
        k(    6) = (   0.6000000  -0.2000000   0.6000000), wk =   0.3840000
        k(    7) = (   0.4000000   0.0000000   0.4000000), wk =   0.1920000
        k(    8) = (   0.0000000   0.8000000   0.0000000), wk =   0.0960000
        k(    9) = (   0.8000000   0.0000000   0.8000000), wk =   0.1920000
        k(   10) = (   0.6000000  -0.2000000   1.0000000), wk =   0.3840000

     Dense  grid:    12939 G-vectors     FFT dimensions: (  36,  36,  36)

     Largest allocated arrays     est. size (Mb)     dimensions
        Kohn-Sham Wavefunctions         0.25 Mb     (    1639,   10)
        NL pseudopotentials             0.55 Mb     (    1639,   22)
        Each V/rho on FFT grid          0.71 Mb     (   46656)
        Each G-vector array             0.10 Mb     (   12939)
        G-vector shells                 0.00 Mb     (     180)
     Largest temporary arrays     est. size (Mb)     dimensions
        Auxiliary wavefunctions         1.00 Mb     (    1639,   40)
        Each subspace H/S matrix        0.02 Mb     (      40,   40)
        Each <psi_i|beta_j> matrix      0.00 Mb     (      22,   10)
        Arrays for rho mixing           5.70 Mb     (   46656,    8)

     Initial potential from superposition of free atoms

     starting charge    7.99859, renormalised to    8.10000
     Starting wfc are   32 randomized atomic wfcs

     total cpu time spent up to now is        1.5 secs

     per-process dynamical memory:    15.9 Mb

     Self-consistent Calculation

     iteration #  1     ecut=    50.00 Ry     beta=0.30
     Davidson diagonalization with overlap
     ethr =  1.00E-02,  avg # of iterations =  2.3

     Threshold (ethr) on eigenvalues was too large:
     Diagonalizing with lowered threshold

     Davidson diagonalization with overlap
     ethr =  6.60E-04,  avg # of iterations =  1.0

     total cpu time spent up to now is        3.7 secs

     total energy              =     -15.71092159 Ry
     Harris-Foulkes estimate   =     -15.71771025 Ry
     estimated scf accuracy    <       0.05395155 Ry

     iteration #  2     ecut=    50.00 Ry     beta=0.30
     Davidson diagonalization with overlap
     ethr =  6.66E-04,  avg # of iterations =  1.0

     total cpu time spent up to now is        5.0 secs

     total energy              =     -15.70679680 Ry
     Harris-Foulkes estimate   =     -15.71134576 Ry
     estimated scf accuracy    <       0.02307209 Ry

     iteration #  3     ecut=    50.00 Ry     beta=0.30
     Davidson diagonalization with overlap
     ethr =  2.85E-04,  avg # of iterations =  1.0

     total cpu time spent up to now is        6.4 secs

     total energy              =     -15.70804554 Ry
     Harris-Foulkes estimate   =     -15.70807480 Ry
     estimated scf accuracy    <       0.00036456 Ry

     iteration #  4     ecut=    50.00 Ry     beta=0.30
     Davidson diagonalization with overlap
     ethr =  4.50E-06,  avg # of iterations =  3.5

     total cpu time spent up to now is        7.6 secs

     total energy              =     -15.70808569 Ry
     Harris-Foulkes estimate   =     -15.70809485 Ry
     estimated scf accuracy    <       0.00002329 Ry

     iteration #  5     ecut=    50.00 Ry     beta=0.30
     Davidson diagonalization with overlap
     ethr =  2.88E-07,  avg # of iterations =  2.0

     total cpu time spent up to now is        8.8 secs

     total energy              =     -15.70808925 Ry
     Harris-Foulkes estimate   =     -15.70808927 Ry
     estimated scf accuracy    <       0.00000071 Ry

     iteration #  6     ecut=    50.00 Ry     beta=0.30
     Davidson diagonalization with overlap
     ethr =  8.80E-09,  avg # of iterations =  2.0

     total cpu time spent up to now is       10.4 secs

     total energy              =     -15.70808969 Ry
     Harris-Foulkes estimate   =     -15.70808956 Ry
     estimated scf accuracy    <       0.00000019 Ry

     iteration #  7     ecut=    50.00 Ry     beta=0.30
     Davidson diagonalization with overlap
     ethr =  2.38E-09,  avg # of iterations =  2.0

     total cpu time spent up to now is       11.5 secs

     End of self-consistent calculation

          k = 0.0000 0.0000 0.0000 (  1639 PWs)   bands (ev):

    -5.7694   6.2165   6.2165   6.2165   8.7693   8.7693   8.7693   9.4805
    13.9438  13.9438

          k =-0.2000 0.2000-0.2000 (  1606 PWs)   bands (ev):

    -5.2503   3.1965   5.6348   5.6348   8.3950   9.5703   9.5703  12.1793
    13.2607  13.2607

          k =-0.4000 0.4000-0.4000 (  1616 PWs)   bands (ev):

    -3.8820  -0.0743   5.0861   5.0861   7.7905   9.6191   9.6191  13.9894
    15.1943  15.1944

          k = 0.0000 0.4000 0.0000 (  1607 PWs)   bands (ev):

    -5.0717   3.5857   4.7218   4.7218   7.6512  10.0618  11.1015  11.1015
    13.2131  14.7176

          k =-0.2000 0.6000-0.2000 (  1619 PWs)   bands (ev):

    -3.9265   0.8964   3.5792   4.2124   7.9603  10.2707  11.1172  11.6414
    16.3279  16.5814

          k = 0.6000-0.2000 0.6000 (  1596 PWs)   bands (ev):

    -3.0374  -0.5027   2.7672   4.4965   8.2405  10.7853  11.0059  13.7513
    14.5449  14.6444

          k = 0.4000 0.0000 0.4000 (  1610 PWs)   bands (ev):

    -4.4160   1.7311   3.1993   5.3686   9.0775  10.1993  10.5006  11.9013
    12.3218  16.9159

          k = 0.0000 0.8000 0.0000 (  1624 PWs)   bands (ev):

    -3.0487   0.0297   3.5114   3.5114   6.7619   7.4895  14.7066  14.7066
    17.0271  17.2772

          k = 0.8000 0.0000 0.8000 (  1622 PWs)   bands (ev):

    -1.8383  -1.2344   2.1302   3.6307   7.2094   9.3386  14.2942  14.8445
    14.8833  15.2755

          k = 0.6000-0.2000 1.0000 (  1616 PWs)   bands (ev):

    -2.6068  -0.3542   2.2158   3.2083   9.5855   9.9587  10.6157  13.9701
    14.6518  16.3671

     the Fermi energy is     6.8418 ev

!    total energy              =     -15.70808973 Ry
     Harris-Foulkes estimate   =     -15.70808973 Ry
     estimated scf accuracy    <          1.0E-09 Ry

     The total energy is the sum of the following terms:

     one-electron contribution =       4.87195038 Ry
     hartree contribution      =       1.10578806 Ry
     xc contribution           =      -4.88941705 Ry
     ewald contribution        =     -16.79708774 Ry
     smearing contrib. (-TS)   =       0.00067662 Ry

     convergence has been achieved in   7 iterations

     Forces acting on atoms (Ry/au):

     atom    1 type  1   force =     0.00000000   -0.00000000   -0.00000000
     atom    2 type  1   force =    -0.00000000    0.00000000    0.00000000

     Total force =     0.000000     Total SCF correction =     0.000000


     entering subroutine stress ...

          total   stress  (Ry/bohr**3)                   (kbar)     P=   55.62
   0.00037809   0.00000000   0.00000000         55.62      0.00      0.00
   0.00000000   0.00037809  -0.00000000          0.00     55.62     -0.00
   0.00000000  -0.00000000   0.00037809          0.00     -0.00     55.62


     Writing output data file Si.save

     init_run     :      1.29s CPU      1.40s WALL (       1 calls)
     electrons    :      9.14s CPU     10.00s WALL (       1 calls)
     forces       :      0.07s CPU      0.07s WALL (       1 calls)
     stress       :      0.83s CPU      0.87s WALL (       1 calls)

     Called by init_run:
     wfcinit      :      1.09s CPU      1.18s WALL (       1 calls)
     potinit      :      0.06s CPU      0.06s WALL (       1 calls)

     Called by electrons:
     c_bands      :      7.13s CPU      7.83s WALL (       8 calls)
     sum_band     :      1.57s CPU      1.65s WALL (       8 calls)
     v_of_rho     :      0.47s CPU      0.51s WALL (       8 calls)
     mix_rho      :      0.02s CPU      0.02s WALL (       8 calls)

     Called by c_bands:
     init_us_2    :      0.35s CPU      0.39s WALL (     190 calls)
     cegterg      :      6.84s CPU      7.51s WALL (      80 calls)

     Called by *egterg:
     h_psi        :      7.14s CPU      7.83s WALL (     238 calls)
     g_psi        :      0.02s CPU      0.02s WALL (     148 calls)
     cdiaghg      :      0.07s CPU      0.08s WALL (     218 calls)

     Called by h_psi:
     add_vuspsi   :      0.21s CPU      0.23s WALL (     238 calls)

     General routines
     calbec       :      0.25s CPU      0.28s WALL (     258 calls)
     fft          :      0.18s CPU      0.20s WALL (      97 calls)
     fftw         :      7.46s CPU      8.12s WALL (    5030 calls)
     davcio       :      0.00s CPU      0.00s WALL (      10 calls)

     Parallel routines
     fft_scatter  :      0.21s CPU      0.22s WALL (    5127 calls)

     PWSCF        :    11.47s CPU        12.50s WALL


   This run was terminated on:  16:58:17  13Feb2023            

=------------------------------------------------------------------------------=
   JOB DONE.
=------------------------------------------------------------------------------=
