
     Program PWSCF v.5.1 starts on 14Feb2023 at 18:29:41 

     This program is part of the open-source Quantum ESPRESSO suite
     for quantum simulation of materials; please cite
         "P. Giannozzi et al., J. Phys.:Condens. Matter 21 395502 (2009);
          URL http://www.quantum-espresso.org", 
     in publications or presentations arising from this work. More details at
     http://www.quantum-espresso.org/quote

     Parallel version (MPI), running on     1 processors
     Waiting for input...
     Reading input from standard input

     Current dimensions of program PWSCF are:
     Max number of different atomic species (ntypx) = 10
     Max number of k-points (npk) =  40000
     Max angular momentum in pseudopotentials (lmaxx) =  3

     Atomic positions and unit cell read from directory:
     ./out/Si.save/

               file Si.pbe-mt_fhi.UPF: wavefunction(s)  4f renormalized

     Subspace diagonalization in iterative solution of the eigenvalue problem:
     a serial algorithm will be used


     G-vector sticks info
     --------------------
     sticks:   dense  smooth     PW     G-vecs:    dense   smooth      PW
     Sum         733     733    211                12939    12939    2109



     bravais-lattice index     =            2
     lattice parameter (alat)  =      10.2623  a.u.
     unit-cell volume          =     270.1967 (a.u.)^3
     number of atoms/cell      =            2
     number of atomic types    =            1
     number of electrons       =         8.00
     number of Kohn-Sham states=           10
     kinetic-energy cutoff     =      50.0000  Ry
     charge density cutoff     =     200.0000  Ry
     Exchange-correlation      = PBE ( 1  4  3  4 0)

     celldm(1)=  10.262347  celldm(2)=   0.000000  celldm(3)=   0.000000
     celldm(4)=   0.000000  celldm(5)=   0.000000  celldm(6)=   0.000000

     crystal axes: (cart. coord. in units of alat)
               a(1) = (  -0.500000   0.000000   0.500000 )  
               a(2) = (   0.000000   0.500000   0.500000 )  
               a(3) = (  -0.500000   0.500000   0.000000 )  

     reciprocal axes: (cart. coord. in units 2 pi/alat)
               b(1) = ( -1.000000 -1.000000  1.000000 )  
               b(2) = (  1.000000  1.000000  1.000000 )  
               b(3) = ( -1.000000  1.000000 -1.000000 )  


     PseudoPot. # 1 for Si read from file:
     /home/acedemo/psudo/Si.pbe-mt_fhi.UPF
     MD5 check sum: 259057c2adf9952f9ced37ae3d9e311d
     Pseudo is Norm-conserving, Zval =  4.0
     Generated using FHI98PP, converted with fhi2upf.x v.5.0.2
     Using radial grid of  495 points,  3 beta functions with: 
                l(1) =   0
                l(2) =   1
                l(3) =   3

     atomic species   valence    mass     pseudopotential
        Si             4.00    28.08550     Si( 1.00)

     48 Sym. Ops., with inversion, found (24 have fractional translation)


                                    s                        frac. trans.

      isym =  1     identity                                     

 cryst.   s( 1) = (     1          0          0      )
                  (     0          1          0      )
                  (     0          0          1      )

 cart.    s( 1) = (  1.0000000  0.0000000  0.0000000 )
                  (  0.0000000  1.0000000  0.0000000 )
                  (  0.0000000  0.0000000  1.0000000 )


      isym =  2     180 deg rotation - cart. axis [0,0,1]        

 cryst.   s( 2) = (     0          1         -1      )
                  (     1          0         -1      )
                  (     0          0         -1      )

 cart.    s( 2) = ( -1.0000000  0.0000000  0.0000000 )
                  (  0.0000000 -1.0000000  0.0000000 )
                  (  0.0000000  0.0000000  1.0000000 )


      isym =  3     180 deg rotation - cart. axis [0,1,0]        

 cryst.   s( 3) = (    -1          0          0      )
                  (    -1          0          1      )
                  (    -1          1          0      )

 cart.    s( 3) = ( -1.0000000  0.0000000  0.0000000 )
                  (  0.0000000  1.0000000  0.0000000 )
                  (  0.0000000  0.0000000 -1.0000000 )


      isym =  4     180 deg rotation - cart. axis [1,0,0]        

 cryst.   s( 4) = (     0         -1          1      )
                  (     0         -1          0      )
                  (     1         -1          0      )

 cart.    s( 4) = (  1.0000000  0.0000000  0.0000000 )
                  (  0.0000000 -1.0000000  0.0000000 )
                  (  0.0000000  0.0000000 -1.0000000 )


      isym =  5     180 deg rotation - cart. axis [1,1,0]        

 cryst.   s( 5) = (     0         -1          0      )    f =(  0.2500000 )
                  (    -1          0          0      )       (  0.2500000 )
                  (     0          0         -1      )       (  0.2500000 )

 cart.    s( 5) = (  0.0000000  1.0000000  0.0000000 )    f =( -0.2500000 )
                  (  1.0000000  0.0000000  0.0000000 )       (  0.2500000 )
                  (  0.0000000  0.0000000 -1.0000000 )       (  0.2500000 )


      isym =  6     180 deg rotation - cart. axis [1,-1,0]       

 cryst.   s( 6) = (    -1          0          1      )    f =(  0.2500000 )
                  (     0         -1          1      )       (  0.2500000 )
                  (     0          0          1      )       (  0.2500000 )

 cart.    s( 6) = (  0.0000000 -1.0000000  0.0000000 )    f =( -0.2500000 )
                  ( -1.0000000  0.0000000  0.0000000 )       (  0.2500000 )
                  (  0.0000000  0.0000000 -1.0000000 )       (  0.2500000 )


      isym =  7      90 deg rotation - cart. axis [0,0,-1]       

 cryst.   s( 7) = (     0          1          0      )    f =(  0.2500000 )
                  (     0          1         -1      )       (  0.2500000 )
                  (    -1          1          0      )       (  0.2500000 )

 cart.    s( 7) = (  0.0000000  1.0000000  0.0000000 )    f =( -0.2500000 )
                  ( -1.0000000  0.0000000  0.0000000 )       (  0.2500000 )
                  (  0.0000000  0.0000000  1.0000000 )       (  0.2500000 )


      isym =  8      90 deg rotation - cart. axis [0,0,1]        

 cryst.   s( 8) = (     1          0         -1      )    f =(  0.2500000 )
                  (     1          0          0      )       (  0.2500000 )
                  (     1         -1          0      )       (  0.2500000 )

 cart.    s( 8) = (  0.0000000 -1.0000000  0.0000000 )    f =( -0.2500000 )
                  (  1.0000000  0.0000000  0.0000000 )       (  0.2500000 )
                  (  0.0000000  0.0000000  1.0000000 )       (  0.2500000 )


      isym =  9     180 deg rotation - cart. axis [1,0,1]        

 cryst.   s( 9) = (    -1          0          0      )    f =(  0.2500000 )
                  (     0          0         -1      )       (  0.2500000 )
                  (     0         -1          0      )       (  0.2500000 )

 cart.    s( 9) = (  0.0000000  0.0000000  1.0000000 )    f =( -0.2500000 )
                  (  0.0000000 -1.0000000  0.0000000 )       (  0.2500000 )
                  (  1.0000000  0.0000000  0.0000000 )       (  0.2500000 )


      isym = 10     180 deg rotation - cart. axis [-1,0,1]       

 cryst.   s(10) = (     1          0          0      )    f =(  0.2500000 )
                  (     1         -1          0      )       (  0.2500000 )
                  (     1          0         -1      )       (  0.2500000 )

 cart.    s(10) = (  0.0000000  0.0000000 -1.0000000 )    f =( -0.2500000 )
                  (  0.0000000 -1.0000000  0.0000000 )       (  0.2500000 )
                  ( -1.0000000  0.0000000  0.0000000 )       (  0.2500000 )


      isym = 11      90 deg rotation - cart. axis [0,1,0]        

 cryst.   s(11) = (     0          1         -1      )    f =(  0.2500000 )
                  (    -1          1          0      )       (  0.2500000 )
                  (     0          1          0      )       (  0.2500000 )

 cart.    s(11) = (  0.0000000  0.0000000  1.0000000 )    f =( -0.2500000 )
                  (  0.0000000  1.0000000  0.0000000 )       (  0.2500000 )
                  ( -1.0000000  0.0000000  0.0000000 )       (  0.2500000 )


      isym = 12      90 deg rotation - cart. axis [0,-1,0]       

 cryst.   s(12) = (     0         -1          1      )    f =(  0.2500000 )
                  (     0          0          1      )       (  0.2500000 )
                  (    -1          0          1      )       (  0.2500000 )

 cart.    s(12) = (  0.0000000  0.0000000 -1.0000000 )    f =( -0.2500000 )
                  (  0.0000000  1.0000000  0.0000000 )       (  0.2500000 )
                  (  1.0000000  0.0000000  0.0000000 )       (  0.2500000 )


      isym = 13     180 deg rotation - cart. axis [0,1,1]        

 cryst.   s(13) = (    -1          1          0      )    f =(  0.2500000 )
                  (     0          1          0      )       (  0.2500000 )
                  (     0          1         -1      )       (  0.2500000 )

 cart.    s(13) = ( -1.0000000  0.0000000  0.0000000 )    f =( -0.2500000 )
                  (  0.0000000  0.0000000  1.0000000 )       (  0.2500000 )
                  (  0.0000000  1.0000000  0.0000000 )       (  0.2500000 )


      isym = 14     180 deg rotation - cart. axis [0,1,-1]       

 cryst.   s(14) = (     0          0         -1      )    f =(  0.2500000 )
                  (     0         -1          0      )       (  0.2500000 )
                  (    -1          0          0      )       (  0.2500000 )

 cart.    s(14) = ( -1.0000000  0.0000000  0.0000000 )    f =( -0.2500000 )
                  (  0.0000000  0.0000000 -1.0000000 )       (  0.2500000 )
                  (  0.0000000 -1.0000000  0.0000000 )       (  0.2500000 )


      isym = 15      90 deg rotation - cart. axis [-1,0,0]       

 cryst.   s(15) = (     0          0          1      )    f =(  0.2500000 )
                  (    -1          0          1      )       (  0.2500000 )
                  (     0         -1          1      )       (  0.2500000 )

 cart.    s(15) = (  1.0000000  0.0000000  0.0000000 )    f =( -0.2500000 )
                  (  0.0000000  0.0000000  1.0000000 )       (  0.2500000 )
                  (  0.0000000 -1.0000000  0.0000000 )       (  0.2500000 )


      isym = 16      90 deg rotation - cart. axis [1,0,0]        

 cryst.   s(16) = (     1         -1          0      )    f =(  0.2500000 )
                  (     1          0         -1      )       (  0.2500000 )
                  (     1          0          0      )       (  0.2500000 )

 cart.    s(16) = (  1.0000000  0.0000000  0.0000000 )    f =( -0.2500000 )
                  (  0.0000000  0.0000000 -1.0000000 )       (  0.2500000 )
                  (  0.0000000  1.0000000  0.0000000 )       (  0.2500000 )


      isym = 17     120 deg rotation - cart. axis [-1,-1,-1]     

 cryst.   s(17) = (    -1          0          1      )
                  (    -1          1          0      )
                  (    -1          0          0      )

 cart.    s(17) = (  0.0000000  1.0000000  0.0000000 )
                  (  0.0000000  0.0000000  1.0000000 )
                  (  1.0000000  0.0000000  0.0000000 )


      isym = 18     120 deg rotation - cart. axis [-1,1,1]       

 cryst.   s(18) = (     0          1          0      )
                  (     0          0          1      )
                  (     1          0          0      )

 cart.    s(18) = (  0.0000000 -1.0000000  0.0000000 )
                  (  0.0000000  0.0000000  1.0000000 )
                  ( -1.0000000  0.0000000  0.0000000 )


      isym = 19     120 deg rotation - cart. axis [1,1,-1]       

 cryst.   s(19) = (     1          0         -1      )
                  (     0          0         -1      )
                  (     0          1         -1      )

 cart.    s(19) = (  0.0000000  1.0000000  0.0000000 )
                  (  0.0000000  0.0000000 -1.0000000 )
                  ( -1.0000000  0.0000000  0.0000000 )


      isym = 20     120 deg rotation - cart. axis [1,-1,1]       

 cryst.   s(20) = (     0         -1          0      )
                  (     1         -1          0      )
                  (     0         -1          1      )

 cart.    s(20) = (  0.0000000 -1.0000000  0.0000000 )
                  (  0.0000000  0.0000000 -1.0000000 )
                  (  1.0000000  0.0000000  0.0000000 )


      isym = 21     120 deg rotation - cart. axis [1,1,1]        

 cryst.   s(21) = (     0          0         -1      )
                  (     0          1         -1      )
                  (     1          0         -1      )

 cart.    s(21) = (  0.0000000  0.0000000  1.0000000 )
                  (  1.0000000  0.0000000  0.0000000 )
                  (  0.0000000  1.0000000  0.0000000 )


      isym = 22     120 deg rotation - cart. axis [-1,1,-1]      

 cryst.   s(22) = (    -1          1          0      )
                  (    -1          0          0      )
                  (    -1          0          1      )

 cart.    s(22) = (  0.0000000  0.0000000  1.0000000 )
                  ( -1.0000000  0.0000000  0.0000000 )
                  (  0.0000000 -1.0000000  0.0000000 )


      isym = 23     120 deg rotation - cart. axis [1,-1,-1]      

 cryst.   s(23) = (     0          0          1      )
                  (     1          0          0      )
                  (     0          1          0      )

 cart.    s(23) = (  0.0000000  0.0000000 -1.0000000 )
                  ( -1.0000000  0.0000000  0.0000000 )
                  (  0.0000000  1.0000000  0.0000000 )


      isym = 24     120 deg rotation - cart. axis [-1,-1,1]      

 cryst.   s(24) = (     1         -1          0      )
                  (     0         -1          1      )
                  (     0         -1          0      )

 cart.    s(24) = (  0.0000000  0.0000000 -1.0000000 )
                  (  1.0000000  0.0000000  0.0000000 )
                  (  0.0000000 -1.0000000  0.0000000 )


      isym = 25     inversion                                    

 cryst.   s(25) = (    -1          0          0      )    f =(  0.2500000 )
                  (     0         -1          0      )       (  0.2500000 )
                  (     0          0         -1      )       (  0.2500000 )

 cart.    s(25) = ( -1.0000000  0.0000000  0.0000000 )    f =( -0.2500000 )
                  (  0.0000000 -1.0000000  0.0000000 )       (  0.2500000 )
                  (  0.0000000  0.0000000 -1.0000000 )       (  0.2500000 )


      isym = 26     inv. 180 deg rotation - cart. axis [0,0,1]   

 cryst.   s(26) = (     0         -1          1      )    f =(  0.2500000 )
                  (    -1          0          1      )       (  0.2500000 )
                  (     0          0          1      )       (  0.2500000 )

 cart.    s(26) = (  1.0000000  0.0000000  0.0000000 )    f =( -0.2500000 )
                  (  0.0000000  1.0000000  0.0000000 )       (  0.2500000 )
                  (  0.0000000  0.0000000 -1.0000000 )       (  0.2500000 )


      isym = 27     inv. 180 deg rotation - cart. axis [0,1,0]   

 cryst.   s(27) = (     1          0          0      )    f =(  0.2500000 )
                  (     1          0         -1      )       (  0.2500000 )
                  (     1         -1          0      )       (  0.2500000 )

 cart.    s(27) = (  1.0000000  0.0000000  0.0000000 )    f =( -0.2500000 )
                  (  0.0000000 -1.0000000  0.0000000 )       (  0.2500000 )
                  (  0.0000000  0.0000000  1.0000000 )       (  0.2500000 )


      isym = 28     inv. 180 deg rotation - cart. axis [1,0,0]   

 cryst.   s(28) = (     0          1         -1      )    f =(  0.2500000 )
                  (     0          1          0      )       (  0.2500000 )
                  (    -1          1          0      )       (  0.2500000 )

 cart.    s(28) = ( -1.0000000  0.0000000  0.0000000 )    f =( -0.2500000 )
                  (  0.0000000  1.0000000  0.0000000 )       (  0.2500000 )
                  (  0.0000000  0.0000000  1.0000000 )       (  0.2500000 )


      isym = 29     inv. 180 deg rotation - cart. axis [1,1,0]   

 cryst.   s(29) = (     0          1          0      )
                  (     1          0          0      )
                  (     0          0          1      )

 cart.    s(29) = (  0.0000000 -1.0000000  0.0000000 )
                  ( -1.0000000  0.0000000  0.0000000 )
                  (  0.0000000  0.0000000  1.0000000 )


      isym = 30     inv. 180 deg rotation - cart. axis [1,-1,0]  

 cryst.   s(30) = (     1          0         -1      )
                  (     0          1         -1      )
                  (     0          0         -1      )

 cart.    s(30) = (  0.0000000  1.0000000  0.0000000 )
                  (  1.0000000  0.0000000  0.0000000 )
                  (  0.0000000  0.0000000  1.0000000 )


      isym = 31     inv.  90 deg rotation - cart. axis [0,0,-1]  

 cryst.   s(31) = (     0         -1          0      )
                  (     0         -1          1      )
                  (     1         -1          0      )

 cart.    s(31) = (  0.0000000 -1.0000000  0.0000000 )
                  (  1.0000000  0.0000000  0.0000000 )
                  (  0.0000000  0.0000000 -1.0000000 )


      isym = 32     inv.  90 deg rotation - cart. axis [0,0,1]   

 cryst.   s(32) = (    -1          0          1      )
                  (    -1          0          0      )
                  (    -1          1          0      )

 cart.    s(32) = (  0.0000000  1.0000000  0.0000000 )
                  ( -1.0000000  0.0000000  0.0000000 )
                  (  0.0000000  0.0000000 -1.0000000 )


      isym = 33     inv. 180 deg rotation - cart. axis [1,0,1]   

 cryst.   s(33) = (     1          0          0      )
                  (     0          0          1      )
                  (     0          1          0      )

 cart.    s(33) = (  0.0000000  0.0000000 -1.0000000 )
                  (  0.0000000  1.0000000  0.0000000 )
                  ( -1.0000000  0.0000000  0.0000000 )


      isym = 34     inv. 180 deg rotation - cart. axis [-1,0,1]  

 cryst.   s(34) = (    -1          0          0      )
                  (    -1          1          0      )
                  (    -1          0          1      )

 cart.    s(34) = (  0.0000000  0.0000000  1.0000000 )
                  (  0.0000000  1.0000000  0.0000000 )
                  (  1.0000000  0.0000000  0.0000000 )


      isym = 35     inv.  90 deg rotation - cart. axis [0,1,0]   

 cryst.   s(35) = (     0         -1          1      )
                  (     1         -1          0      )
                  (     0         -1          0      )

 cart.    s(35) = (  0.0000000  0.0000000 -1.0000000 )
                  (  0.0000000 -1.0000000  0.0000000 )
                  (  1.0000000  0.0000000  0.0000000 )


      isym = 36     inv.  90 deg rotation - cart. axis [0,-1,0]  

 cryst.   s(36) = (     0          1         -1      )
                  (     0          0         -1      )
                  (     1          0         -1      )

 cart.    s(36) = (  0.0000000  0.0000000  1.0000000 )
                  (  0.0000000 -1.0000000  0.0000000 )
                  ( -1.0000000  0.0000000  0.0000000 )


      isym = 37     inv. 180 deg rotation - cart. axis [0,1,1]   

 cryst.   s(37) = (     1         -1          0      )
                  (     0         -1          0      )
                  (     0         -1          1      )

 cart.    s(37) = (  1.0000000  0.0000000  0.0000000 )
                  (  0.0000000  0.0000000 -1.0000000 )
                  (  0.0000000 -1.0000000  0.0000000 )


      isym = 38     inv. 180 deg rotation - cart. axis [0,1,-1]  

 cryst.   s(38) = (     0          0          1      )
                  (     0          1          0      )
                  (     1          0          0      )

 cart.    s(38) = (  1.0000000  0.0000000  0.0000000 )
                  (  0.0000000  0.0000000  1.0000000 )
                  (  0.0000000  1.0000000  0.0000000 )


      isym = 39     inv.  90 deg rotation - cart. axis [-1,0,0]  

 cryst.   s(39) = (     0          0         -1      )
                  (     1          0         -1      )
                  (     0          1         -1      )

 cart.    s(39) = ( -1.0000000  0.0000000  0.0000000 )
                  (  0.0000000  0.0000000 -1.0000000 )
                  (  0.0000000  1.0000000  0.0000000 )


      isym = 40     inv.  90 deg rotation - cart. axis [1,0,0]   

 cryst.   s(40) = (    -1          1          0      )
                  (    -1          0          1      )
                  (    -1          0          0      )

 cart.    s(40) = ( -1.0000000  0.0000000  0.0000000 )
                  (  0.0000000  0.0000000  1.0000000 )
                  (  0.0000000 -1.0000000  0.0000000 )


      isym = 41     inv. 120 deg rotation - cart. axis [-1,-1,-1]

 cryst.   s(41) = (     1          0         -1      )    f =(  0.2500000 )
                  (     1         -1          0      )       (  0.2500000 )
                  (     1          0          0      )       (  0.2500000 )

 cart.    s(41) = (  0.0000000 -1.0000000  0.0000000 )    f =( -0.2500000 )
                  (  0.0000000  0.0000000 -1.0000000 )       (  0.2500000 )
                  ( -1.0000000  0.0000000  0.0000000 )       (  0.2500000 )


      isym = 42     inv. 120 deg rotation - cart. axis [-1,1,1]  

 cryst.   s(42) = (     0         -1          0      )    f =(  0.2500000 )
                  (     0          0         -1      )       (  0.2500000 )
                  (    -1          0          0      )       (  0.2500000 )

 cart.    s(42) = (  0.0000000  1.0000000  0.0000000 )    f =( -0.2500000 )
                  (  0.0000000  0.0000000 -1.0000000 )       (  0.2500000 )
                  (  1.0000000  0.0000000  0.0000000 )       (  0.2500000 )


      isym = 43     inv. 120 deg rotation - cart. axis [1,1,-1]  

 cryst.   s(43) = (    -1          0          1      )    f =(  0.2500000 )
                  (     0          0          1      )       (  0.2500000 )
                  (     0         -1          1      )       (  0.2500000 )

 cart.    s(43) = (  0.0000000 -1.0000000  0.0000000 )    f =( -0.2500000 )
                  (  0.0000000  0.0000000  1.0000000 )       (  0.2500000 )
                  (  1.0000000  0.0000000  0.0000000 )       (  0.2500000 )


      isym = 44     inv. 120 deg rotation - cart. axis [1,-1,1]  

 cryst.   s(44) = (     0          1          0      )    f =(  0.2500000 )
                  (    -1          1          0      )       (  0.2500000 )
                  (     0          1         -1      )       (  0.2500000 )

 cart.    s(44) = (  0.0000000  1.0000000  0.0000000 )    f =( -0.2500000 )
                  (  0.0000000  0.0000000  1.0000000 )       (  0.2500000 )
                  ( -1.0000000  0.0000000  0.0000000 )       (  0.2500000 )


      isym = 45     inv. 120 deg rotation - cart. axis [1,1,1]   

 cryst.   s(45) = (     0          0          1      )    f =(  0.2500000 )
                  (     0         -1          1      )       (  0.2500000 )
                  (    -1          0          1      )       (  0.2500000 )

 cart.    s(45) = (  0.0000000  0.0000000 -1.0000000 )    f =( -0.2500000 )
                  ( -1.0000000  0.0000000  0.0000000 )       (  0.2500000 )
                  (  0.0000000 -1.0000000  0.0000000 )       (  0.2500000 )


      isym = 46     inv. 120 deg rotation - cart. axis [-1,1,-1] 

 cryst.   s(46) = (     1         -1          0      )    f =(  0.2500000 )
                  (     1          0          0      )       (  0.2500000 )
                  (     1          0         -1      )       (  0.2500000 )

 cart.    s(46) = (  0.0000000  0.0000000 -1.0000000 )    f =( -0.2500000 )
                  (  1.0000000  0.0000000  0.0000000 )       (  0.2500000 )
                  (  0.0000000  1.0000000  0.0000000 )       (  0.2500000 )


      isym = 47     inv. 120 deg rotation - cart. axis [1,-1,-1] 

 cryst.   s(47) = (     0          0         -1      )    f =(  0.2500000 )
                  (    -1          0          0      )       (  0.2500000 )
                  (     0         -1          0      )       (  0.2500000 )

 cart.    s(47) = (  0.0000000  0.0000000  1.0000000 )    f =( -0.2500000 )
                  (  1.0000000  0.0000000  0.0000000 )       (  0.2500000 )
                  (  0.0000000 -1.0000000  0.0000000 )       (  0.2500000 )


      isym = 48     inv. 120 deg rotation - cart. axis [-1,-1,1] 

 cryst.   s(48) = (    -1          1          0      )    f =(  0.2500000 )
                  (     0          1         -1      )       (  0.2500000 )
                  (     0          1          0      )       (  0.2500000 )

 cart.    s(48) = (  0.0000000  0.0000000  1.0000000 )    f =( -0.2500000 )
                  ( -1.0000000  0.0000000  0.0000000 )       (  0.2500000 )
                  (  0.0000000  1.0000000  0.0000000 )       (  0.2500000 )


     point group O_h (m-3m) 
     there are 10 classes
     the character table:

       E     8C3   6C2'  6C4   3C2   i     6S4   8S6   3s_h  6s_d 
A_1g   1.00  1.00  1.00  1.00  1.00  1.00  1.00  1.00  1.00  1.00
A_2g   1.00  1.00 -1.00 -1.00  1.00  1.00 -1.00  1.00  1.00 -1.00
E_g    2.00 -1.00  0.00  0.00  2.00  2.00  0.00 -1.00  2.00  0.00
T_1g   3.00  0.00 -1.00  1.00 -1.00  3.00  1.00  0.00 -1.00 -1.00
T_2g   3.00  0.00  1.00 -1.00 -1.00  3.00 -1.00  0.00 -1.00  1.00
A_1u   1.00  1.00  1.00  1.00  1.00 -1.00 -1.00 -1.00 -1.00 -1.00
A_2u   1.00  1.00 -1.00 -1.00  1.00 -1.00  1.00 -1.00 -1.00  1.00
E_u    2.00 -1.00  0.00  0.00  2.00 -2.00  0.00  1.00 -2.00  0.00
T_1u   3.00  0.00 -1.00  1.00 -1.00 -3.00 -1.00  0.00  1.00  1.00
T_2u   3.00  0.00  1.00 -1.00 -1.00 -3.00  1.00  0.00  1.00 -1.00

     the symmetry operations in each class:
     E        1
     3C2      2    4    3
     6C2'     5    6   14   13   10    9
     6C4      7    8   15   16   12   11
     8C3     17   19   20   18   24   21   22   23
     i       25
     3s_h    26   28   27
     6s_d    29   30   38   37   34   33
     6S4     31   32   39   40   36   35
     8S6     41   43   44   42   48   45   46   47

   Cartesian axes

     site n.     atom                  positions (alat units)
         1           Si  tau(   1) = (   0.0000000   0.0000000   0.0000000  )
         2           Si  tau(   2) = (   0.2500000   0.2500000   0.2500000  )

   Crystallographic axes

     site n.     atom                  positions (cryst. coord.)
         1           Si  tau(   1) = (  0.0000000  0.0000000  0.0000000  )
         2           Si  tau(   2) = ( -0.2500000  0.7500000 -0.2500000  )

     number of k points=    51
                       cart. coord. in units 2pi/alat
        k(    1) = (   0.5000000   0.5000000   0.5000000), wk =   0.0000000
        k(    2) = (   0.4500000   0.4500000   0.4500000), wk =   0.0014779
        k(    3) = (   0.4000000   0.4000000   0.4000000), wk =   0.0029558
        k(    4) = (   0.3500000   0.3500000   0.3500000), wk =   0.0044337
        k(    5) = (   0.3000000   0.3000000   0.3000000), wk =   0.0059116
        k(    6) = (   0.2500000   0.2500000   0.2500000), wk =   0.0073895
        k(    7) = (   0.2000000   0.2000000   0.2000000), wk =   0.0088674
        k(    8) = (   0.1500000   0.1500000   0.1500000), wk =   0.0103453
        k(    9) = (   0.1000000   0.1000000   0.1000000), wk =   0.0118232
        k(   10) = (   0.0500000   0.0500000   0.0500000), wk =   0.0133011
        k(   11) = (   0.0000000   0.0000000   0.0000000), wk =   0.0147790
        k(   12) = (   0.0000000   0.1000000   0.0000000), wk =   0.0168691
        k(   13) = (   0.0000000   0.2000000   0.0000000), wk =   0.0189591
        k(   14) = (   0.0000000   0.3000000   0.0000000), wk =   0.0210492
        k(   15) = (   0.0000000   0.4000000   0.0000000), wk =   0.0231392
        k(   16) = (   0.0000000   0.5000000   0.0000000), wk =   0.0252293
        k(   17) = (   0.0000000   0.6000000   0.0000000), wk =   0.0273194
        k(   18) = (   0.0000000   0.7000000   0.0000000), wk =   0.0294094
        k(   19) = (   0.0000000   0.8000000   0.0000000), wk =   0.0314995
        k(   20) = (   0.0000000   0.9000000   0.0000000), wk =   0.0335896
        k(   21) = (   0.0000000   1.0000000   0.0000000), wk =   0.0356796
        k(   22) = (   0.0000000   0.9750000   0.0750000), wk =   0.0370621
        k(   23) = (   0.0000000   0.9500000   0.1500000), wk =   0.0384445
        k(   24) = (  -0.0000000   0.9250000   0.2250000), wk =   0.0398270
        k(   25) = (  -0.0000000   0.9000000   0.3000000), wk =   0.0412094
        k(   26) = (   0.0000000   0.8750000   0.3750000), wk =   0.0425919
        k(   27) = (   0.0000000   0.8500000   0.4500000), wk =   0.0439743
        k(   28) = (   0.0000000   0.8250000   0.5250000), wk =   0.0453568
        k(   29) = (  -0.0000000   0.8000000   0.6000000), wk =   0.0467392
        k(   30) = (  -0.0000000   0.7750000   0.6750000), wk =   0.0481217
        k(   31) = (   0.0000000   0.7500000   0.7500000), wk =   0.0495041
        k(   32) = (   0.0000000   0.7250000   0.7750000), wk =   0.0500266
        k(   33) = (   0.0000000   0.7000000   0.8000000), wk =   0.0505491
        k(   34) = (   0.0000000   0.6750000   0.8250000), wk =   0.0510717
        k(   35) = (   0.0000000   0.6500000   0.8500000), wk =   0.0515942
        k(   36) = (   0.0000000   0.6250000   0.8750000), wk =   0.0521167
        k(   37) = (   0.0000000   0.6000000   0.9000000), wk =   0.0526392
        k(   38) = (   0.0000000   0.5750000   0.9250000), wk =   0.0531617
        k(   39) = (   0.0000000   0.5500000   0.9500000), wk =   0.0536842
        k(   40) = (   0.0000000   0.5250000   0.9750000), wk =   0.0542067
        k(   41) = (   0.0000000   0.5000000   1.0000000), wk =   0.0547293
        k(   42) = (   0.0000000   0.4500000   0.9000000), wk =   0.0574942
        k(   43) = (  -0.0000000   0.4000000   0.8000000), wk =   0.0602591
        k(   44) = (  -0.0000000   0.3500000   0.7000000), wk =   0.0630239
        k(   45) = (  -0.0000000   0.3000000   0.6000000), wk =   0.0657888
        k(   46) = (   0.0000000   0.2500000   0.5000000), wk =   0.0685537
        k(   47) = (   0.0000000   0.2000000   0.4000000), wk =   0.0713186
        k(   48) = (   0.0000000   0.1500000   0.3000000), wk =   0.0740835
        k(   49) = (  -0.0000000   0.1000000   0.2000000), wk =   0.0768484
        k(   50) = (  -0.0000000   0.0500000   0.1000000), wk =   0.0796133
        k(   51) = (   0.0000000   0.0000000   0.0000000), wk =   0.0823782

                       cryst. coord.
        k(    1) = (   0.0000000   0.5000000   0.0000000), wk =   0.0000000
        k(    2) = (   0.0000000   0.4500000   0.0000000), wk =   0.0014779
        k(    3) = (   0.0000000   0.4000000   0.0000000), wk =   0.0029558
        k(    4) = (   0.0000000   0.3500000   0.0000000), wk =   0.0044337
        k(    5) = (   0.0000000   0.3000000   0.0000000), wk =   0.0059116
        k(    6) = (   0.0000000   0.2500000   0.0000000), wk =   0.0073895
        k(    7) = (   0.0000000   0.2000000   0.0000000), wk =   0.0088674
        k(    8) = (   0.0000000   0.1500000   0.0000000), wk =   0.0103453
        k(    9) = (   0.0000000   0.1000000   0.0000000), wk =   0.0118232
        k(   10) = (   0.0000000   0.0500000   0.0000000), wk =   0.0133011
        k(   11) = (   0.0000000   0.0000000   0.0000000), wk =   0.0147790
        k(   12) = (   0.0000000   0.0500000   0.0500000), wk =   0.0168691
        k(   13) = (   0.0000000   0.1000000   0.1000000), wk =   0.0189591
        k(   14) = (   0.0000000   0.1500000   0.1500000), wk =   0.0210492
        k(   15) = (   0.0000000   0.2000000   0.2000000), wk =   0.0231392
        k(   16) = (   0.0000000   0.2500000   0.2500000), wk =   0.0252293
        k(   17) = (   0.0000000   0.3000000   0.3000000), wk =   0.0273194
        k(   18) = (   0.0000000   0.3500000   0.3500000), wk =   0.0294094
        k(   19) = (   0.0000000   0.4000000   0.4000000), wk =   0.0314995
        k(   20) = (   0.0000000   0.4500000   0.4500000), wk =   0.0335896
        k(   21) = (   0.0000000   0.5000000   0.5000000), wk =   0.0356796
        k(   22) = (   0.0375000   0.5250000   0.4875000), wk =   0.0370621
        k(   23) = (   0.0750000   0.5500000   0.4750000), wk =   0.0384445
        k(   24) = (   0.1125000   0.5750000   0.4625000), wk =   0.0398270
        k(   25) = (   0.1500000   0.6000000   0.4500000), wk =   0.0412094
        k(   26) = (   0.1875000   0.6250000   0.4375000), wk =   0.0425919
        k(   27) = (   0.2250000   0.6500000   0.4250000), wk =   0.0439743
        k(   28) = (   0.2625000   0.6750000   0.4125000), wk =   0.0453568
        k(   29) = (   0.3000000   0.7000000   0.4000000), wk =   0.0467392
        k(   30) = (   0.3375000   0.7250000   0.3875000), wk =   0.0481217
        k(   31) = (   0.3750000   0.7500000   0.3750000), wk =   0.0495041
        k(   32) = (   0.3875000   0.7500000   0.3625000), wk =   0.0500266
        k(   33) = (   0.4000000   0.7500000   0.3500000), wk =   0.0505491
        k(   34) = (   0.4125000   0.7500000   0.3375000), wk =   0.0510717
        k(   35) = (   0.4250000   0.7500000   0.3250000), wk =   0.0515942
        k(   36) = (   0.4375000   0.7500000   0.3125000), wk =   0.0521167
        k(   37) = (   0.4500000   0.7500000   0.3000000), wk =   0.0526392
        k(   38) = (   0.4625000   0.7500000   0.2875000), wk =   0.0531617
        k(   39) = (   0.4750000   0.7500000   0.2750000), wk =   0.0536842
        k(   40) = (   0.4875000   0.7500000   0.2625000), wk =   0.0542067
        k(   41) = (   0.5000000   0.7500000   0.2500000), wk =   0.0547293
        k(   42) = (   0.4500000   0.6750000   0.2250000), wk =   0.0574942
        k(   43) = (   0.4000000   0.6000000   0.2000000), wk =   0.0602591
        k(   44) = (   0.3500000   0.5250000   0.1750000), wk =   0.0630239
        k(   45) = (   0.3000000   0.4500000   0.1500000), wk =   0.0657888
        k(   46) = (   0.2500000   0.3750000   0.1250000), wk =   0.0685537
        k(   47) = (   0.2000000   0.3000000   0.1000000), wk =   0.0713186
        k(   48) = (   0.1500000   0.2250000   0.0750000), wk =   0.0740835
        k(   49) = (   0.1000000   0.1500000   0.0500000), wk =   0.0768484
        k(   50) = (   0.0500000   0.0750000   0.0250000), wk =   0.0796133
        k(   51) = (   0.0000000   0.0000000   0.0000000), wk =   0.0823782

     Dense  grid:    12939 G-vectors     FFT dimensions: (  36,  36,  36)

     Largest allocated arrays     est. size (Mb)     dimensions
        Kohn-Sham Wavefunctions         0.25 Mb     (    1639,   10)
        NL pseudopotentials             0.55 Mb     (    1639,   22)
        Each V/rho on FFT grid          0.71 Mb     (   46656)
        Each G-vector array             0.10 Mb     (   12939)
        G-vector shells                 0.00 Mb     (     180)
     Largest temporary arrays     est. size (Mb)     dimensions
        Auxiliary wavefunctions         1.00 Mb     (    1639,   40)
        Each subspace H/S matrix        0.02 Mb     (      40,   40)
        Each <psi_i|beta_j> matrix      0.00 Mb     (      22,   10)

     The potential is recalculated from file :
     ./out/Si.save/charge-density.dat

     Starting wfc are   32 randomized atomic wfcs

     Band Structure Calculation
     Davidson diagonalization with overlap

     Computing kpt #:     1
     total cpu time spent up to now is        2.9 secs

     Computing kpt #:     2
     total cpu time spent up to now is        3.4 secs

     Computing kpt #:     3
     total cpu time spent up to now is        3.9 secs

     Computing kpt #:     4
     total cpu time spent up to now is        4.5 secs

     Computing kpt #:     5
     total cpu time spent up to now is        5.0 secs

     Computing kpt #:     6
     total cpu time spent up to now is        5.8 secs

     Computing kpt #:     7
     total cpu time spent up to now is        6.4 secs

     Computing kpt #:     8
     total cpu time spent up to now is        6.9 secs

     Computing kpt #:     9
     total cpu time spent up to now is        7.5 secs

     Computing kpt #:    10
     total cpu time spent up to now is        8.0 secs

     Computing kpt #:    11
     total cpu time spent up to now is        8.6 secs

     Computing kpt #:    12
     total cpu time spent up to now is        9.2 secs

     Computing kpt #:    13
     total cpu time spent up to now is        9.7 secs

     Computing kpt #:    14
     total cpu time spent up to now is       10.3 secs

     Computing kpt #:    15
     total cpu time spent up to now is       10.8 secs

     Computing kpt #:    16
     total cpu time spent up to now is       11.2 secs

     Computing kpt #:    17
     total cpu time spent up to now is       11.9 secs

     Computing kpt #:    18
     total cpu time spent up to now is       12.4 secs

     Computing kpt #:    19
     total cpu time spent up to now is       13.1 secs

     Computing kpt #:    20
     total cpu time spent up to now is       13.9 secs

     Computing kpt #:    21
     total cpu time spent up to now is       14.3 secs

     Computing kpt #:    22
     total cpu time spent up to now is       14.7 secs

     Computing kpt #:    23
     total cpu time spent up to now is       15.3 secs

     Computing kpt #:    24
     total cpu time spent up to now is       16.0 secs

     Computing kpt #:    25
     total cpu time spent up to now is       16.7 secs

     Computing kpt #:    26
     total cpu time spent up to now is       17.1 secs

     Computing kpt #:    27
     total cpu time spent up to now is       17.4 secs

     Computing kpt #:    28
     total cpu time spent up to now is       17.8 secs

     Computing kpt #:    29
     total cpu time spent up to now is       18.2 secs

     Computing kpt #:    30
     total cpu time spent up to now is       18.6 secs

     Computing kpt #:    31
     total cpu time spent up to now is       19.1 secs

     Computing kpt #:    32
     total cpu time spent up to now is       19.5 secs

     Computing kpt #:    33
     total cpu time spent up to now is       19.9 secs

     Computing kpt #:    34
     total cpu time spent up to now is       20.4 secs

     Computing kpt #:    35
     total cpu time spent up to now is       21.0 secs

     Computing kpt #:    36
     total cpu time spent up to now is       21.6 secs

     Computing kpt #:    37
     total cpu time spent up to now is       22.2 secs

     Computing kpt #:    38
     total cpu time spent up to now is       22.7 secs

     Computing kpt #:    39
     total cpu time spent up to now is       23.1 secs

     Computing kpt #:    40
     total cpu time spent up to now is       23.4 secs

     Computing kpt #:    41
     total cpu time spent up to now is       23.8 secs

     Computing kpt #:    42
     total cpu time spent up to now is       24.4 secs

     Computing kpt #:    43
     total cpu time spent up to now is       24.9 secs

     Computing kpt #:    44
     total cpu time spent up to now is       25.4 secs

     Computing kpt #:    45
     total cpu time spent up to now is       25.9 secs

     Computing kpt #:    46
     total cpu time spent up to now is       26.4 secs

     Computing kpt #:    47
     total cpu time spent up to now is       26.9 secs

     Computing kpt #:    48
     total cpu time spent up to now is       27.3 secs

     Computing kpt #:    49
     total cpu time spent up to now is       27.8 secs

     Computing kpt #:    50
     total cpu time spent up to now is       28.4 secs

     Computing kpt #:    51
     total cpu time spent up to now is       28.8 secs

     ethr =  2.00E-11,  avg # of iterations = 16.5

     total cpu time spent up to now is       28.8 secs

     End of band structure calculation

          k = 0.5000 0.5000 0.5000 (  1622 PWs)   bands (ev):

    -3.3969  -0.7344   5.0417   5.0417   7.7536   9.5878   9.5878  13.9695
    16.8090  16.8090

          k = 0.4500 0.4500 0.4500 (  1610 PWs)   bands (ev):

    -3.5314  -0.5381   5.0597   5.0597   7.7742   9.6082   9.6082  14.0008
    16.1138  16.1138

          k = 0.4000 0.4000 0.4000 (  1616 PWs)   bands (ev):

    -3.8493  -0.0355   5.1136   5.1136   7.8357   9.6632   9.6632  14.0809
    15.2359  15.2359

          k = 0.3500 0.3500 0.3500 (  1610 PWs)   bands (ev):

    -4.2270   0.6480   5.2029   5.2029   7.9369   9.7329   9.7329  14.1285
    14.4618  14.4618

          k = 0.3000 0.3000 0.3000 (  1615 PWs)   bands (ev):

    -4.5976   1.4419   5.3264   5.3264   8.0752   9.7795   9.7795  13.8270
    13.8481  13.8481

          k = 0.2500 0.2500 0.2500 (  1618 PWs)   bands (ev):

    -4.9313   2.3103   5.4815   5.4815   8.2455   9.7507   9.7507  13.0869
    13.4506  13.4506

          k = 0.2000 0.2000 0.2000 (  1606 PWs)   bands (ev):

    -5.2141   3.2289   5.6620   5.6620   8.4380   9.6077   9.6077  12.2168
    13.3066  13.3066

          k = 0.1500 0.1500 0.1500 (  1600 PWs)   bands (ev):

    -5.4387   4.1713   5.8565   5.8565   8.6347   9.3675   9.3675  11.3195
    13.3928  13.3928

          k = 0.1000 0.1000 0.1000 (  1606 PWs)   bands (ev):

    -5.6013   5.0926   6.0432   6.0432   8.8005   9.0998   9.0998  10.4522
    13.6226  13.6226

          k = 0.0500 0.0500 0.0500 (  1630 PWs)   bands (ev):

    -5.6995   5.8821   6.1864   6.1864   8.8624   8.8888   8.8888   9.7590
    13.8695  13.8695

          k = 0.0000 0.0000 0.0000 (  1639 PWs)   bands (ev):

    -5.7324   6.2417   6.2417   6.2417   8.8079   8.8079   8.8079   9.5121
    13.9803  13.9803

          k = 0.0000 0.1000 0.0000 (  1627 PWs)   bands (ev):

    -5.6886   5.9588   6.0661   6.0661   8.7019   9.0371   9.0371   9.7845
    13.6507  14.0287

          k = 0.0000 0.2000 0.0000 (  1599 PWs)   bands (ev):

    -5.5572   5.2973   5.6652   5.6652   8.4276   9.5975   9.5975  10.3467
    12.9903  14.1739

          k = 0.0000 0.3000 0.0000 (  1607 PWs)   bands (ev):

    -5.3392   4.4831   5.2018   5.2018   8.0709  10.3237  10.3237  10.6034
    12.6928  14.4157

          k = 0.0000 0.4000 0.0000 (  1607 PWs)   bands (ev):

    -5.0357   3.6116   4.7529   4.7529   7.7038  10.1146  11.1349  11.1349
    13.2501  14.7539

          k = 0.0000 0.5000 0.0000 (  1612 PWs)   bands (ev):

    -4.6486   2.7185   4.3507   4.3507   7.3722   9.3698  11.9955  11.9955
    14.1923  15.1882

          k = 0.0000 0.6000 0.0000 (  1620 PWs)   bands (ev):

    -4.1805   1.8205   4.0105   4.0105   7.1040   8.6550  12.8885  12.8885
    15.2335  15.7182

          k = 0.0000 0.7000 0.0000 (  1632 PWs)   bands (ev):

    -3.6348   0.9298   3.7403   3.7403   6.9169   8.0428  13.8056  13.8056
    16.2881  16.3433

          k = 0.0000 0.8000 0.0000 (  1624 PWs)   bands (ev):

    -3.0158   0.0581   3.5447   3.5447   6.8233   7.5536  14.7405  14.7405
    17.0628  17.3147

          k = 0.0000 0.9000 0.0000 (  1608 PWs)   bands (ev):

    -2.3292  -0.7829   3.4264   3.4264   6.8326   7.1914  15.6712  15.6712
    17.8757  17.8880

          k = 0.0000 1.0000 0.0000 (  1604 PWs)   bands (ev):

    -1.5821  -1.5821   3.3868   3.3868   6.9529   6.9529  16.3152  16.3152
    17.2309  17.2309

          k = 0.0000 0.9750 0.0750 (  1618 PWs)   bands (ev):

    -1.7644  -1.3803   3.3137   3.3204   7.0481   7.1335  15.9143  16.1290
    16.9380  17.1660

          k = 0.0000 0.9500 0.1500 (  1622 PWs)   bands (ev):

    -1.9197  -1.1713   3.1181   3.1658   7.3946   7.5491  14.8937  15.6975
    16.4518  17.3065

          k =-0.0000 0.9250 0.2250 (  1622 PWs)   bands (ev):

    -2.0435  -0.9732   2.8588   3.0023   7.9281   8.1353  13.7272  15.0597
    16.0832  17.4579

          k =-0.0000 0.9000 0.3000 (  1623 PWs)   bands (ev):

    -2.1339  -0.8098   2.5884   2.8973   8.5912   8.8409  12.5559  14.3358
    15.7888  17.4272

          k = 0.0000 0.8750 0.3750 (  1614 PWs)   bands (ev):

    -2.1902  -0.7047   2.3410   2.8970   9.3449   9.6221  11.4351  13.6057
    15.5116  17.1674

          k = 0.0000 0.8500 0.4500 (  1612 PWs)   bands (ev):

    -2.2130  -0.6701   2.1367   3.0191  10.1062  10.1592  10.7441  12.9045
    15.2298  16.7568

          k = 0.0000 0.8250 0.5250 (  1611 PWs)   bands (ev):

    -2.2036  -0.7002   1.9880   3.2468   9.2585  10.9857  11.5323  12.2764
    14.9363  16.2564

          k =-0.0000 0.8000 0.6000 (  1614 PWs)   bands (ev):

    -2.1634  -0.7761   1.9027   3.5269   8.4049  11.3563  12.1805  12.5066
    14.6336  15.7112

          k =-0.0000 0.7750 0.6750 (  1621 PWs)   bands (ev):

    -2.0940  -0.8777   1.8852   3.7628   7.7542  10.8870  12.9801  13.5254
    14.3386  15.1591

          k = 0.0000 0.7500 0.7500 (  1624 PWs)   bands (ev):

    -1.9962  -0.9916   1.9378   3.8146   7.4456  10.3680  13.7034  14.2296
    14.4247  14.7627

          k = 0.0000 0.7250 0.7750 (  1616 PWs)   bands (ev):

    -1.9904  -0.9939   1.9424   3.7781   7.4997  10.3719  13.5555  14.1617
    14.3767  15.0267

          k = 0.0000 0.7000 0.8000 (  1621 PWs)   bands (ev):

    -1.9729  -1.0012   1.9563   3.6758   7.6554  10.3835  13.2833  13.7841
    14.6465  15.4061

          k = 0.0000 0.6750 0.8250 (  1620 PWs)   bands (ev):

    -1.9439  -1.0141   1.9795   3.5244   7.8963  10.4025  12.9879  13.4010
    14.9381  15.7888

          k = 0.0000 0.6500 0.8500 (  1616 PWs)   bands (ev):

    -1.9033  -1.0341   2.0118   3.3436   8.2039  10.4283  12.6889  13.0221
    15.2320  16.1589

          k = 0.0000 0.6250 0.8750 (  1616 PWs)   bands (ev):

    -1.8511  -1.0630   2.0531   3.1507   8.5620  10.4600  12.3932  12.6506
    15.5220  16.5014

          k = 0.0000 0.6000 0.9000 (  1613 PWs)   bands (ev):

    -1.7873  -1.1030   2.1033   2.9595   8.9580  10.4956  12.1055  12.2888
    15.8047  16.7923

          k = 0.0000 0.5750 0.9250 (  1615 PWs)   bands (ev):

    -1.7121  -1.1564   2.1621   2.7807   9.3811  10.5316  11.8310  11.9401
    16.0775  16.9925

          k = 0.0000 0.5500 0.9500 (  1615 PWs)   bands (ev):

    -1.6254  -1.2256   2.2293   2.6221   9.8190  10.5604  11.5786  11.6115
    16.3378  17.0580

          k = 0.0000 0.5250 0.9750 (  1615 PWs)   bands (ev):

    -1.5274  -1.3124   2.3045   2.4897  10.2431  10.5655  11.3279  11.3657
    16.5821  16.9817

          k = 0.0000 0.5000 1.0000 (  1628 PWs)   bands (ev):

    -1.4180  -1.4180   2.3874   2.3874  10.5168  10.5168  11.2232  11.2232
    16.8051  16.8051

          k = 0.0000 0.4500 0.9000 (  1616 PWs)   bands (ev):

    -1.9484  -0.9148   2.1890   2.7791  10.1530  10.2161  10.8900  12.4378
    15.7829  17.1330

          k =-0.0000 0.4000 0.8000 (  1616 PWs)   bands (ev):

    -2.5759  -0.3257   2.2602   3.2481   9.6354  10.0167  10.6565  14.0144
    14.6878  16.4043

          k =-0.0000 0.3500 0.7000 (  1618 PWs)   bands (ev):

    -3.2272   0.3486   2.5404   3.7675   9.2113   9.9470  10.5003  13.6362
    15.4995  15.6255

          k =-0.0000 0.3000 0.6000 (  1609 PWs)   bands (ev):

    -3.8467   1.1069   2.9761   4.3019   8.8949  10.0263  10.3942  12.6508
    14.6789  16.9763

          k = 0.0000 0.2500 0.5000 (  1610 PWs)   bands (ev):

    -4.4008   1.9468   3.5276   4.8130   8.6886  10.1179  10.4423  11.7394
    14.0053  16.4298

          k = 0.0000 0.2000 0.4000 (  1613 PWs)   bands (ev):

    -4.8701   2.8625   4.1600   5.2693   8.5900   9.9484  10.8444  10.9064
    13.4490  15.0408

          k = 0.0000 0.1500 0.3000 (  1607 PWs)   bands (ev):

    -5.2434   3.8410   4.8332   5.6544   8.5897   9.6626  10.1575  11.2192
    12.9019  14.2226

          k =-0.0000 0.1000 0.2000 (  1600 PWs)   bands (ev):

    -5.5139   4.8487   5.4877   5.9594   8.6639   9.3373   9.5084  10.7664
    13.0155  13.9916

          k =-0.0000 0.0500 0.1000 (  1623 PWs)   bands (ev):

    -5.6776   5.7777   6.0191   6.1662   8.7615   9.0122   9.0214   9.8909
    13.6424  13.9715

          k = 0.0000 0.0000 0.0000 (  1639 PWs)   bands (ev):

    -5.7324   6.2417   6.2417   6.2417   8.8079   8.8079   8.8079   9.5121
    13.9803  13.9803

     Writing output data file Si.save

     init_run     :      0.19s CPU      0.21s WALL (       1 calls)
     electrons    :     24.87s CPU     26.58s WALL (       1 calls)

     Called by init_run:
     wfcinit      :      0.00s CPU      0.00s WALL (       1 calls)
     potinit      :      0.05s CPU      0.05s WALL (       1 calls)

     Called by electrons:
     c_bands      :     24.87s CPU     26.58s WALL (       1 calls)
     v_of_rho     :      0.04s CPU      0.04s WALL (       1 calls)
     v_h          :      0.00s CPU      0.00s WALL (       1 calls)
     v_xc         :      0.04s CPU      0.04s WALL (       1 calls)

     Called by c_bands:
     init_us_2    :      0.08s CPU      0.08s WALL (      51 calls)
     cegterg      :     19.28s CPU     20.60s WALL (      55 calls)

     Called by sum_band:

     Called by *egterg:
     h_psi        :     20.81s CPU     22.21s WALL (     947 calls)
     g_psi        :      0.05s CPU      0.06s WALL (     841 calls)
     cdiaghg      :      0.40s CPU      0.42s WALL (     892 calls)
     cegterg:over :      1.18s CPU      1.28s WALL (     841 calls)
     cegterg:upda :      0.79s CPU      0.87s WALL (     841 calls)
     cegterg:last :      0.48s CPU      0.53s WALL (     206 calls)

     Called by h_psi:
     h_psi:vloc   :     19.47s CPU     20.78s WALL (     947 calls)
     h_psi:vnl    :      1.31s CPU      1.39s WALL (     947 calls)
     add_vuspsi   :      0.61s CPU      0.65s WALL (     947 calls)

     General routines
     calbec       :      0.69s CPU      0.73s WALL (     947 calls)
     fft          :      0.02s CPU      0.03s WALL (      10 calls)
     fftw         :     18.41s CPU     19.64s WALL (   14648 calls)
     davcio       :      0.00s CPU      0.00s WALL (      51 calls)

     Parallel routines
     fft_scatter  :      0.45s CPU      0.48s WALL (   14658 calls)

     PWSCF        :    26.88s CPU        28.91s WALL


   This run was terminated on:  18:30:10  14Feb2023            

=------------------------------------------------------------------------------=
   JOB DONE.
=------------------------------------------------------------------------------=
